/*--------------------------------*- C++ -*----------------------------------*\
  =========                 |
  \\      /  F ield         | OpenFOAM: The Open Source CFD Toolbox
   \\    /   O peration     | Website:  https://openfoam.org
    \\  /    A nd           | Version:  9
     \\/     M anipulation  |
\*---------------------------------------------------------------------------*/
FoamFile
{
    format      ascii;
    class       volScalarField;
    location    "2";
    object      T;
}
// * * * * * * * * * * * * * * * * * * * * * * * * * * * * * * * * * * * * * //

dimensions      [0 0 0 0 0 0 0];

internalField   nonuniform List<scalar> 
3600
(
0.50007554
0.13627359
0.045314842
0.016175911
0.0061333067
0.00255322
0.0010547449
0.0004289431
0.00016544791
6.4175801e-05
2.6349758e-05
1.08756e-05
4.4976669e-06
1.8618639e-06
7.7116622e-07
3.1961457e-07
1.3145228e-07
5.4973061e-08
2.2835743e-08
9.5795837e-09
4.0898755e-09
1.7934818e-09
7.9940522e-10
3.5188041e-10
1.5303103e-10
6.6136971e-11
2.8696842e-11
1.2494377e-11
5.4806304e-12
2.4178702e-12
1.0718958e-12
4.7623701e-13
2.0768807e-13
9.277777e-14
4.0781108e-14
1.7931395e-14
7.9054931e-15
3.5214411e-15
1.5812466e-15
7.1223471e-16
3.1820522e-16
1.3940305e-16
3.6372264e-17
7.3624703e-18
1.5307706e-18
3.2644582e-19
7.1279185e-20
1.5885072e-20
3.603495e-21
8.318122e-22
1.9581232e-22
4.7209179e-23
1.1704454e-23
2.9861966e-24
7.8057242e-25
2.0723864e-25
5.5314227e-26
1.4692558e-26
3.9023478e-27
8.4721725e-28
0.86350717
0.50014863
0.19684167
0.074883984
0.028153388
0.010133769
0.0038372645
0.0015361775
0.00073262037
0.00033907354
0.00014765054
6.3001185e-05
2.6780831e-05
1.1420859e-05
4.8956013e-06
2.0984594e-06
8.4998404e-07
3.3364576e-07
1.389769e-07
5.9731448e-08
2.5977154e-08
1.1296295e-08
5.1944581e-09
2.453944e-09
1.1092969e-09
4.922514e-10
2.1734208e-10
9.5900908e-11
4.234837e-11
1.8723516e-11
8.2857666e-12
3.6389676e-12
1.4795539e-12
6.0773334e-13
2.6319625e-13
1.1635811e-13
5.1725553e-14
2.3036215e-14
1.0207328e-14
4.7001885e-15
2.2640415e-15
1.0413602e-15
4.7991362e-16
1.6660236e-16
5.5357411e-17
1.7883029e-17
5.6654328e-18
1.7724617e-18
5.4934741e-19
1.6880706e-19
5.1410441e-20
1.5501239e-20
4.6252551e-21
1.3671736e-21
4.0131626e-22
1.17344e-22
3.4287648e-23
1.0022144e-23
2.990132e-24
7.3124682e-25
0.95471149
0.80304721
0.50001049
0.2280696
0.098119162
0.041326906
0.016811425
0.0070909882
0.0027431794
0.001073806
0.00044687578
0.00019082174
8.2109363e-05
3.5516253e-05
1.5413842e-05
6.6763276e-06
2.9829195e-06
1.4527952e-06
6.565541e-07
2.8833688e-07
1.2597862e-07
5.5131316e-08
2.2168314e-08
8.7495948e-09
3.7310919e-09
1.6419575e-09
7.2640693e-10
3.2134623e-10
1.4218572e-10
6.2962654e-11
2.7872638e-11
1.2223277e-11
5.7817475e-12
2.7945848e-12
1.2739242e-12
5.6939351e-13
2.5366212e-13
1.1302695e-13
5.0193094e-14
2.1158012e-14
8.4381772e-15
3.6056184e-15
1.6208377e-15
7.1429441e-16
3.0600741e-16
1.0612173e-16
3.6961598e-17
1.2769038e-17
4.3825849e-18
1.4936786e-18
5.054418e-19
1.700495e-19
5.6925584e-20
1.8942465e-20
6.2538385e-21
2.0453781e-21
6.6257895e-22
2.1227174e-22
6.8825848e-23
1.7912752e-23
0.98366324
0.92551294
0.77172902
0.50003765
0.24883605
0.11577078
0.051588316
0.022214596
0.0095881051
0.0041409039
0.0017944768
0.00077593659
0.00033935346
0.00015037328
6.7031097e-05
2.9344465e-05
1.2256844e-05
4.6617335e-06
1.9299235e-06
8.3752074e-07
3.6735615e-07
1.6086656e-07
7.4246076e-08
3.6333654e-08
1.6582009e-08
7.3776743e-09
3.265831e-09
1.445457e-09
6.4014549e-10
2.8370166e-10
1.2574471e-10
5.5581544e-11
2.3246012e-11
9.1781613e-12
3.9016365e-12
1.7233849e-12
7.6854143e-13
3.4292562e-13
1.5279234e-13
6.8080644e-14
3.4550561e-14
1.6140564e-14
7.3209255e-15
3.2840471e-15
1.4628934e-15
6.3135409e-16
2.4497416e-16
9.2866739e-17
3.4094913e-17
1.2231686e-17
4.3126155e-18
1.4948959e-18
5.1033664e-19
1.7236661e-19
5.7892319e-20
1.940539e-20
6.5026734e-21
2.1716761e-21
7.4052483e-22
2.0188891e-22
0.99402484
0.97120599
0.90247345
0.75102764
0.50006644
0.26449602
0.13116995
0.061965556
0.028197592
0.012494977
0.0054507836
0.0023685718
0.0010162811
0.00042846409
0.00017826503
7.548238e-05
3.4031652e-05
1.6784361e-05
7.8400874e-06
3.5045059e-06
1.5424126e-06
6.7690243e-07
2.8704134e-07
1.1019902e-07
4.6111357e-08
2.0241702e-08
8.9819275e-09
3.9890876e-09
1.771914e-09
7.8752146e-10
3.4992689e-10
1.552892e-10
6.9529659e-11
3.5079588e-11
1.6367599e-11
7.3726318e-12
3.2938653e-12
1.4703777e-12
6.54543e-13
2.9089607e-13
1.1256963e-13
4.6689214e-14
2.0603573e-14
9.2548886e-15
4.1563947e-15
1.861217e-15
8.1717553e-16
3.5204493e-16
1.3486408e-16
5.1734302e-17
1.9617999e-17
7.4063686e-18
2.783589e-18
1.0374296e-18
3.8166249e-19
1.3824609e-19
4.9346636e-20
1.733927e-20
6.1827499e-21
1.7438651e-21
0.99773282
0.98830171
0.9597637
0.88389856
0.73595426
0.50012641
0.27625194
0.14338791
0.07102254
0.033873462
0.015689191
0.0071102108
0.003189515
0.0014236412
0.00063247159
0.00028087299
0.0001227065
5.0590983e-05
2.0864222e-05
8.8995697e-06
3.9039912e-06
1.7259761e-06
7.8031876e-07
3.9404314e-07
1.8385767e-07
8.251981e-08
3.6664962e-08
1.6281553e-08
7.2393282e-09
3.222527e-09
1.4353417e-09
6.3737557e-10
2.8154649e-10
1.0854881e-10
4.4834607e-11
1.9714718e-11
8.8284812e-12
3.9599038e-12
1.7713235e-12
7.7978405e-13
3.8901642e-13
1.8710737e-13
8.5458133e-14
3.843913e-14
1.7257523e-14
7.7622268e-15
3.4744033e-15
1.5481404e-15
6.6624418e-16
2.7148999e-16
1.0853875e-16
4.1661207e-17
1.5530277e-17
5.6885362e-18
2.0726809e-18
7.5660729e-19
2.7692533e-19
1.0088852e-19
3.7648931e-20
1.1066279e-20
0.99909824
0.99518507
0.98364219
0.94803979
0.86921819
0.72384079
0.50014497
0.28597864
0.15415608
0.079246075
0.039198014
0.018804391
0.0087988353
0.0040376091
0.0018252229
0.0008162687
0.0003629475
0.00016265827
7.3537594e-05
3.279792e-05
1.4558648e-05
6.5147198e-06
2.8605944e-06
1.1456977e-06
4.7627898e-07
2.0826351e-07
9.2605158e-08
4.1365959e-08
1.8490383e-08
8.2683201e-09
3.6992401e-09
1.652126e-09
7.231277e-10
3.6528172e-10
1.7469955e-10
7.9510588e-11
3.5685852e-11
1.5989409e-11
7.1573413e-12
3.1967743e-12
1.3273584e-12
5.273947e-13
2.2596769e-13
1.0071489e-13
4.5327098e-14
2.0432389e-14
9.1951501e-15
4.1263869e-15
1.846279e-15
8.1185055e-16
3.5082079e-16
1.4115529e-16
5.7407707e-17
2.3487646e-17
9.4908149e-18
3.7458238e-18
1.4464293e-18
5.4700532e-19
2.1059202e-19
6.338958e-20
0.9996297
0.99795965
0.99355909
0.97717275
0.93829423
0.85651373
0.71420683
0.50001649
0.29404921
0.16350018
0.086793261
0.04433598
0.021943039
0.010582915
0.0049968567
0.0023179523
0.0010597967
0.00047857007
0.00021393909
9.5363547e-05
4.2302496e-05
1.8562573e-05
8.2156511e-06
3.7899508e-06
1.7288127e-06
7.815443e-07
3.5286201e-07
1.6147886e-07
7.2747852e-08
3.2692605e-08
1.4653606e-08
6.5376894e-09
2.9005875e-09
1.157796e-09
4.6375339e-10
2.0118226e-10
9.0283832e-11
4.0716709e-11
1.8289125e-11
8.1614962e-12
3.7370919e-12
1.8830406e-12
8.8282902e-13
4.0049884e-13
1.8044039e-13
8.132918e-14
3.6670632e-14
1.6516824e-14
7.4321596e-15
3.3230886e-15
1.4762009e-15
6.3278581e-16
2.5976518e-16
1.0037161e-16
3.8278595e-17
1.4849062e-17
5.8402559e-18
2.2887603e-18
9.2303198e-19
2.8968822e-19
0.99984928
0.99915423
0.99736268
0.99021488
0.97180956
0.92897898
0.84593246
0.70600112
0.49999056
0.3009607
0.17172132
0.093675746
0.04919829
0.025023588
0.012388005
0.0059933746
0.002845136
0.0013295745
0.00061311909
0.00027971325
0.00012664221
5.7142262e-05
2.5540295e-05
1.1317193e-05
4.9910201e-06
2.1859736e-06
9.5412676e-07
4.0913174e-07
1.7774457e-07
7.8075967e-08
3.4872817e-08
1.563629e-08
6.941788e-09
3.4397963e-09
1.6895576e-09
7.8027691e-10
3.5435631e-10
1.5999013e-10
7.1881078e-11
3.2079615e-11
1.4050988e-11
5.5072708e-12
2.2750008e-12
1.0058206e-12
4.5423226e-13
2.0554882e-13
9.2898482e-14
4.1942759e-14
1.8922099e-14
8.5099414e-15
3.8058836e-15
1.6933086e-15
7.3276462e-16
3.4143713e-16
1.5285145e-16
6.4475004e-17
2.6283451e-17
1.0475573e-17
4.2720582e-18
1.3517107e-18
0.99993641
0.99968169
0.99879812
0.99592677
0.98740083
0.96615426
0.92078698
0.83658041
0.6990504
0.49995991
0.30698661
0.17910582
0.10004456
0.053839418
0.028061731
0.014228187
0.0070445413
0.0034172313
0.0016286588
0.00076483817
0.00035471189
0.00016269782
7.4093879e-05
3.3527544e-05
1.5135639e-05
6.8250324e-06
3.0693977e-06
1.4006948e-06
6.3113087e-07
2.8290177e-07
1.2718883e-07
5.7427119e-08
2.5958797e-08
1.0894738e-08
4.474135e-09
1.9164303e-09
8.5418982e-10
3.8511579e-10
1.738411e-10
7.827296e-11
3.4619743e-11
1.7528973e-11
8.4666518e-12
3.8953857e-12
1.7694716e-12
7.9974833e-13
3.615032e-13
1.635112e-13
7.3919254e-14
3.3355514e-14
1.4985218e-14
6.6967788e-15
2.9669753e-15
1.2018437e-15
4.69162e-16
1.9359563e-16
8.1576957e-17
3.3955403e-17
1.464026e-17
4.8676239e-18
0.99997312
0.99987479
0.99945516
0.99834469
0.99440585
0.98434834
0.96078754
0.91328196
0.82831385
0.69300955
0.49994776
0.31229277
0.18576737
0.10594372
0.058254187
0.031030148
0.016076865
0.0081301771
0.0040251736
0.0019563147
0.00093569995
0.0004414021
0.00020576379
9.4957023e-05
4.3447767e-05
1.9746473e-05
8.9241124e-06
4.0106683e-06
1.8041614e-06
8.0879785e-07
3.6014684e-07
1.5949792e-07
7.0786351e-08
3.2408521e-08
1.5179645e-08
6.9771841e-09
3.1874897e-09
1.4681083e-09
6.6831644e-10
3.0224769e-10
1.3429838e-10
5.4362764e-11
2.201491e-11
9.577577e-12
4.3270221e-12
1.9721036e-12
8.9791098e-13
4.0789722e-13
1.8491909e-13
8.3595396e-14
3.7605424e-14
1.6797451e-14
7.3878493e-15
3.4771728e-15
1.721697e-15
7.7481083e-16
3.3908131e-16
1.4565474e-16
6.2906913e-17
2.0766488e-17
0.99998862
0.99994801
0.99975987
0.99933381
0.99755381
0.99291956
0.9811776
0.95570938
0.90636031
0.82092942
0.68766859
0.49994051
0.31703745
0.1918437
0.11144563
0.062469405
0.033933949
0.017929755
0.0092443661
0.0046642028
0.0023087027
0.001123656
0.00053887409
0.00025512835
0.00011946285
5.5420708e-05
2.5506487e-05
1.1661566e-05
5.3058528e-06
2.4064534e-06
1.0894007e-06
4.9240636e-07
2.2160229e-07
9.8913533e-08
4.3691659e-08
1.9267831e-08
8.4452445e-09
3.6573758e-09
1.6046302e-09
7.1103395e-10
3.2096661e-10
1.5725274e-10
7.7389592e-11
3.6227206e-11
1.6726707e-11
7.6676876e-12
3.5006146e-12
1.5934013e-12
7.2289496e-13
3.2670254e-13
1.4688502e-13
6.5563548e-14
2.902351e-14
1.2131556e-14
4.7530674e-15
2.0004611e-15
8.8720296e-16
3.9219953e-16
1.7680673e-16
6.1372389e-17
0.99999519
0.99997788
0.99989672
0.99972025
0.99893381
0.99685555
0.99119636
0.97809594
0.95083625
0.90000385
0.81424226
0.68291421
0.49993472
0.32131159
0.19741501
0.11658904
0.066492906
0.036766725
0.019777877
0.010381141
0.0053308857
0.0026845568
0.0013285618
0.00064740964
0.00031120336
0.00014781407
6.9481785e-05
3.2360691e-05
1.4957877e-05
6.870007e-06
3.1377186e-06
1.4260642e-06
6.4583185e-07
2.9204452e-07
1.3215238e-07
5.975694e-08
2.7153349e-08
1.2427219e-08
5.6344664e-09
2.544955e-09
1.1446082e-09
4.8924932e-10
2.0518356e-10
8.831983e-11
3.9014113e-11
1.7622171e-11
8.0015356e-12
3.6355954e-12
1.6555439e-12
7.5416984e-13
3.4249846e-13
1.5442188e-13
6.8536183e-14
3.1744724e-14
1.5965489e-14
7.5384678e-15
3.4623247e-15
1.5577089e-15
7.1832948e-16
2.5143064e-16
0.99999797
0.99999051
0.99995583
0.99987948
0.99953456
0.9986158
0.9959637
0.98945132
0.97500901
0.94621136
0.89409259
0.80816235
0.67862936
0.49993576
0.32519916
0.20255742
0.12141798
0.070340558
0.039528232
0.021615631
0.011534557
0.0060212242
0.0030816503
0.0015494237
0.00076673657
0.00037406874
0.00018020803
8.5844492e-05
4.0489673e-05
1.8934071e-05
8.788336e-06
4.0525369e-06
1.8581559e-06
8.4780751e-07
3.8514442e-07
1.7436439e-07
7.867415e-08
3.5437509e-08
1.5947635e-08
7.1560895e-09
3.2084778e-09
1.4584883e-09
6.7536912e-10
3.0974385e-10
1.4110495e-10
6.4293023e-11
2.9430616e-11
1.3591652e-11
6.2563858e-12
2.8725255e-12
1.3124206e-12
5.9417442e-13
2.6471975e-13
1.1232825e-13
4.4793615e-14
1.8667304e-14
8.347139e-15
3.7782781e-15
1.7991199e-15
6.4667761e-16
0.99999915
0.99999593
0.99998095
0.99994794
0.999795
0.99939622
0.99817294
0.99503093
0.98763811
0.97198162
0.94178797
0.88858746
0.80258031
0.6747433
0.49994274
0.32875499
0.20732395
0.1259638
0.074023966
0.04221903
0.023439395
0.012700698
0.0067323383
0.0034984227
0.001785553
0.00089664752
0.00044372917
0.0002167149
0.00010459564
4.9950475e-05
2.3630031e-05
1.1085032e-05
5.1616656e-06
2.3879346e-06
1.0986455e-06
5.0307674e-07
2.2941583e-07
1.0426498e-07
4.7319855e-08
2.1436262e-08
9.6706272e-09
4.349792e-09
1.9461983e-09
8.6877692e-10
3.8671621e-10
1.7167525e-10
7.596265e-11
3.3270196e-11
1.4724855e-11
6.5813692e-12
2.9570045e-12
1.3306999e-12
5.9812832e-13
2.8267218e-13
1.4122902e-13
6.8014255e-14
3.1966135e-14
1.466565e-14
7.0051946e-15
2.5378979e-15
0.99999965
0.99999816
0.99999249
0.99997501
0.9999154
0.99973287
0.99918428
0.99769667
0.99402423
0.98580208
0.96900563
0.93756777
0.88343262
0.79743338
0.67119234
0.49995434
0.33202664
0.21176182
0.13025566
0.077555059
0.04484071
0.025246366
0.013876002
0.0074615212
0.0039332387
0.002036169
0.0010368894
0.0005201838
0.00025744204
0.00012584867
6.0837588e-05
2.9115008e-05
1.380742e-05
6.4947447e-06
3.032907e-06
1.4073095e-06
6.493151e-07
2.980936e-07
1.3626581e-07
6.2062497e-08
2.8187581e-08
1.2776648e-08
5.7878901e-09
2.6235533e-09
1.1890551e-09
5.3898171e-10
2.454663e-10
1.1256768e-10
5.1210994e-11
2.322063e-11
1.0526761e-11
4.7695741e-12
2.159843e-12
9.4717468e-13
3.9575106e-13
1.683388e-13
7.4053881e-14
3.3144092e-14
1.5801935e-14
5.7338902e-15
0.99999985
0.99999914
0.99999708
0.99998803
0.99996629
0.99987864
0.99963975
0.99894686
0.99716636
0.99297378
0.98394818
0.96609556
0.93353345
0.87859428
0.79266278
0.66793058
0.49996768
0.33505028
0.21590936
0.13431891
0.080945629
0.047395872
0.027034844
0.015057725
0.0082064414
0.004384569
0.0023004659
0.0011871206
0.00060336039
0.0003024282
0.0001496747
7.3220578e-05
3.544195e-05
1.6990834e-05
8.0745582e-06
3.807239e-06
1.7825152e-06
8.2927175e-07
3.8363397e-07
1.7659849e-07
8.0941701e-08
3.695859e-08
1.6820193e-08
7.6359229e-09
3.4600138e-09
1.5649027e-09
7.0658928e-10
3.1862e-10
1.4363053e-10
6.459516e-11
2.8972731e-11
1.2975775e-11
5.8227706e-12
2.6498116e-12
1.2355107e-12
5.7599004e-13
2.66064e-13
1.225434e-13
5.836846e-14
2.138751e-14
0.99999994
0.99999962
0.99999877
0.99999461
0.99998569
0.999946
0.99984103
0.99952331
0.99867733
0.99659271
0.99188507
0.98208941
0.96325376
0.92967484
0.87403905
0.78822305
0.66491824
0.49998086
0.33785694
0.21979961
0.13817599
0.084206298
0.049887051
0.028803449
0.016243392
0.0089648957
0.0048509302
0.0025776129
0.0013469768
0.00069315842
0.00035169576
0.00017613849
8.7165821e-05
4.2664229e-05
2.0672988e-05
9.9252712e-06
4.72536e-06
2.2325816e-06
1.0475356e-06
4.8845448e-07
2.2649798e-07
1.045083e-07
4.8014669e-08
2.1980541e-08
1.0032806e-08
4.5678552e-09
2.0749871e-09
9.4160268e-10
4.2729266e-10
1.9384112e-10
8.7866366e-11
3.9775329e-11
1.7952641e-11
8.0588445e-12
3.5915813e-12
1.5912868e-12
7.0570873e-13
3.0535076e-13
1.4320157e-13
5.1101318e-14
0.99999998
0.99999983
0.99999946
0.99999763
0.99999374
0.99997593
0.99993047
0.99978515
0.99939069
0.9983758
0.99598291
0.99076602
0.98023433
0.96048225
0.92598061
0.8697389
0.78407508
0.66212284
0.49999255
0.34047277
0.2234611
0.14184662
0.087346651
0.052316713
0.030551049
0.017430744
0.0097348076
0.0053308552
0.0028667555
0.0015160502
0.00078943763
0.00040523788
0.00020528477
0.00010272826
5.0829137e-05
2.4888856e-05
1.2070472e-05
5.80237e-06
2.7667162e-06
1.3095011e-06
6.1562824e-07
2.876577e-07
1.3367413e-07
6.181756e-08
2.8467511e-08
1.3061942e-08
5.9740903e-09
2.7245305e-09
1.2397683e-09
5.6315571e-10
2.5539451e-10
1.156316e-10
5.2282591e-11
2.3638716e-11
1.0709099e-11
4.8573488e-12
2.2152087e-12
1.0117841e-12
4.7421746e-13
1.7368829e-13
0.99999999
0.99999993
0.99999977
0.99999896
0.99999724
0.99998921
0.99996983
0.9999035
0.99972221
0.99923686
0.99804736
0.99534042
0.98962437
0.97838871
0.95778178
0.92243954
0.86566919
0.78018549
0.65951737
0.50000211
0.3429199
0.22691793
0.1453475
0.090374858
0.054686937
0.032276564
0.018617693
0.010514222
0.0058229374
0.0031670523
0.0016939216
0.00089203818
0.00046303036
0.00023714698
0.00011995594
5.998029e-05
2.9671585e-05
1.4533121e-05
7.0531621e-06
3.3940761e-06
1.6205576e-06
7.6822984e-07
3.6180271e-07
1.6938455e-07
7.887938e-08
3.6559367e-08
1.6873597e-08
7.7587677e-09
3.5560455e-09
1.6253185e-09
7.4106371e-10
3.3713752e-10
1.5307443e-10
6.9389715e-11
3.1409983e-11
1.4195361e-11
6.4244758e-12
2.8715026e-12
1.3549724e-12
4.8897196e-13
1
0.99999997
0.9999999
0.99999954
0.99999878
0.99999512
0.99998709
0.99995651
0.99987449
0.99964575
0.99906575
0.99769275
0.99467057
0.98846546
0.97655764
0.95515142
0.91904119
0.86180781
0.7765259
0.65707913
0.50000925
0.34521701
0.23019041
0.14869282
0.093297925
0.056999502
0.033979008
0.019802334
0.01130133
0.0063258515
0.0034776888
0.0018801669
0.0010007848
0.00052503372
0.00027174657
0.00013888929
7.0157191e-05
3.5052724e-05
1.7335805e-05
8.4927449e-06
4.1240953e-06
1.9864032e-06
9.4958648e-07
4.5080924e-07
2.1266693e-07
9.9749021e-08
4.6543443e-08
2.1615574e-08
9.9962531e-09
4.6054144e-09
2.1146658e-09
9.6808477e-10
4.4202584e-10
2.0137686e-10
9.1589549e-11
4.15809e-11
1.8893575e-11
8.4950385e-12
4.0126105e-12
1.4565037e-12
1
0.99999999
0.99999996
0.9999998
0.99999946
0.9999978
0.99999447
0.99998039
0.99994361
0.99983718
0.99955907
0.99887644
0.99731508
0.99397679
0.98729446
0.97474436
0.95258974
0.91577539
0.8581355
0.77307198
0.65478921
0.50001392
0.34737968
0.2332956
0.15189464
0.096121902
0.059256004
0.035657563
0.020983001
0.012094509
0.0068383805
0.0037978949
0.0020743704
0.001115495
0.00059119725
0.00030909519
0.000159562
8.1395556e-05
4.1061984e-05
2.0500376e-05
1.0135958e-05
4.9663029e-06
2.412899e-06
1.1631736e-06
5.566768e-07
2.6464395e-07
1.2504309e-07
5.8751887e-08
2.7463704e-08
1.2778246e-08
5.9203519e-09
2.7325329e-09
1.2568905e-09
5.7637202e-10
2.6363637e-10
1.2026891e-10
5.4879323e-11
2.4735121e-11
1.1713008e-11
4.256529e-12
1
0.99999999
0.99999998
0.99999991
0.99999976
0.99999903
0.9999976
0.99999124
0.99997472
0.99992576
0.99979427
0.99946079
0.99867051
0.99691594
0.99326272
0.98611515
0.97295145
0.95009461
0.91263293
0.85463533
0.76980315
0.6526318
0.50001625
0.34942107
0.23624802
0.15496338
0.098852188
0.061458006
0.037311636
0.022158282
0.012892333
0.0073594206
0.0041269513
0.0022761294
0.0012359824
0.0006614609
0.00034919597
0.00018200188
9.3727696e-05
4.7727408e-05
2.4048043e-05
1.1997539e-05
5.9303467e-06
2.9060744e-06
1.4126192e-06
6.8152155e-07
3.2651722e-07
1.5542847e-07
7.3547377e-08
3.4611384e-08
1.6206149e-08
7.553265e-09
3.5056103e-09
1.6208014e-09
7.4689424e-10
3.4299344e-10
1.5744348e-10
7.1334805e-11
3.3939645e-11
1.2380395e-11
1
1
0.99999999
0.99999996
0.9999999
0.99999957
0.99999894
0.99999608
0.99998874
0.99996636
0.99990497
0.9997445
0.99935168
0.99844851
0.99649749
0.99253124
0.98493082
0.97118049
0.94766373
0.90960537
0.85129271
0.76670188
0.65059372
0.50001654
0.35135245
0.23906025
0.15790833
0.10149378
0.063607141
0.038940887
0.023327033
0.013693569
0.0078879815
0.0044641908
0.0024850578
0.0013620592
0.00073575775
0.00039204502
0.00020623159
0.00010718279
5.5075404e-05
2.7999337e-05
1.4092068e-05
7.025949e-06
3.4721067e-06
1.7017008e-06
8.2758031e-07
3.9957577e-07
1.9163079e-07
9.1330008e-08
4.3275278e-08
2.0395387e-08
9.5647326e-09
4.4650501e-09
2.075954e-09
9.6109127e-10
4.4445827e-10
2.0268069e-10
9.705291e-11
3.5579804e-11
1
1
1
0.99999999
0.99999995
0.99999983
0.99999949
0.99999832
0.99999496
0.99998487
0.99995644
0.99988028
0.99968813
0.99923179
0.99821152
0.9960615
0.99178501
0.98374411
0.96943269
0.94529473
0.90668518
0.84809493
0.76375326
0.64866384
0.50001527
0.35318367
0.24174349
0.1607379
0.10405142
0.065705143
0.040545217
0.024488344
0.014497155
0.008423176
0.0048089963
0.0027007862
0.0014935387
0.00081401601
0.00043763291
0.00023226951
0.00012178729
6.3130908e-05
3.2374155e-05
1.6433964e-05
8.2628851e-06
4.1173032e-06
2.0343293e-06
9.9720025e-07
4.8518987e-07
2.3443103e-07
1.1253551e-07
5.369374e-08
2.5474271e-08
1.2022291e-08
5.6468705e-09
2.6391383e-09
1.2313135e-09
5.6590585e-10
2.7316043e-10
1.0078233e-10
1
1
1
0.99999999
0.99999998
0.99999993
0.99999975
0.99999931
0.99999769
0.99999324
0.99998016
0.99994444
0.99985178
0.99962502
0.99910148
0.99796038
0.99560964
0.99102631
0.98255723
0.96770885
0.94298532
0.90386564
0.84503094
0.76094439
0.64683262
0.50001297
0.35492348
0.24430776
0.16345987
0.10652963
0.06775383
0.04212473
0.025641506
0.015302182
0.0089642086
0.0051607969
0.0029229634
0.0016302372
0.00089616093
0.00048594595
0.00026013042
0.00013756519
7.1917487e-05
3.7191769e-05
1.9037449e-05
9.6509558e-06
4.848079e-06
2.4145374e-06
1.1928334e-06
5.8480907e-07
2.8466543e-07
1.3763553e-07
6.6128197e-08
3.1583845e-08
1.5003663e-08
7.0869701e-09
3.3399613e-09
1.5489038e-09
7.5472031e-10
2.8059036e-10
1
1
1
1
0.99999999
0.99999997
0.99999988
0.99999971
0.99999895
0.99999698
0.99999101
0.99997442
0.99993029
0.99981928
0.99955518
0.99896104
0.99769595
0.99514344
0.99025717
0.98137207
0.96600953
0.94073329
0.90114064
0.84209088
0.7582639
0.64509171
0.50001009
0.35657966
0.24676217
0.16608141
0.10893275
0.069755067
0.043679678
0.026785972
0.016107864
0.0095103644
0.0055190654
0.0031512571
0.0017719762
0.0009821166
0.00053696736
0.0002898261
0.00015453837
8.1457415e-05
4.2470804e-05
2.1916512e-05
1.1199944e-05
5.6709263e-06
2.8464596e-06
1.4170251e-06
6.9995622e-07
3.4322159e-07
1.6713777e-07
8.0859505e-08
3.8884956e-08
1.8581384e-08
8.8550396e-09
4.147858e-09
2.0427353e-09
7.6614868e-10
1
1
1
1
1
0.99999999
0.99999995
0.99999987
0.99999953
0.99999866
0.99999593
0.99998831
0.99996751
0.99991389
0.9997827
0.99947868
0.99881084
0.99741909
0.99466429
0.98947936
0.98019017
0.96433502
0.93853644
0.89850454
0.83926584
0.75570162
0.64343363
0.50000702
0.3581592
0.249115
0.16860915
0.11126485
0.071710704
0.045210411
0.027921315
0.016913521
0.010061
0.0058833163
0.0033853545
0.0019185839
0.0010718073
0.00059067814
0.00032136581
0.00017272667
9.1771665e-05
4.822918e-05
2.5084837e-05
1.2919561e-05
6.5923776e-06
3.3343088e-06
1.6724015e-06
8.3221844e-07
4.110396e-07
2.0157565e-07
9.8207812e-08
4.7514916e-08
2.2917127e-08
1.0852141e-08
5.4074718e-09
2.0480611e-09
1
1
1
1
1
0.99999999
0.99999998
0.99999994
0.99999979
0.99999941
0.99999816
0.99999468
0.99998498
0.99995938
0.99989511
0.99974197
0.99939557
0.99865125
0.99713059
0.99417348
0.98869444
0.97901283
0.9626854
0.9363925
0.895952
0.83654764
0.75324831
0.64185162
0.500004
0.35966834
0.25137371
0.17104916
0.11352977
0.073622534
0.046717337
0.029047206
0.017718562
0.01061554
0.006253105
0.0036249639
0.0020698962
0.0011651584
0.00064705744
0.00035475637
0.00019214789
0.00010287981
5.4484004e-05
2.8555719e-05
1.4819384e-05
7.6189621e-06
3.8823526e-06
1.9616483e-06
9.8325094e-07
4.8908227e-07
2.4156256e-07
1.1841198e-07
5.7845324e-08
2.771109e-08
1.3983578e-08
5.3529092e-09
1
1
1
1
1
1
0.99999999
0.99999997
0.9999999
0.99999974
0.99999917
0.9999976
0.9999931
0.99998101
0.99994991
0.99987388
0.99969706
0.99930598
0.99848264
0.9968312
0.99367216
0.98790375
0.97784102
0.96106048
0.93429919
0.89347801
0.83392877
0.75089563
0.64033963
0.50000124
0.36111264
0.25354505
0.17340697
0.11573105
0.075492272
0.048200904
0.030163403
0.018522482
0.011173472
0.0066280274
0.0038698146
0.0022257574
0.0012620963
0.00070608259
0.00039000203
0.00021281761
0.00011479985
6.1251434e-05
3.2341959e-05
1.6908783e-05
8.7571672e-06
4.4948697e-06
2.2875288e-06
1.1546976e-06
5.7848398e-07
2.8746454e-07
1.4232209e-07
6.9014737e-08
3.529615e-08
1.3666107e-08
1
1
1
1
1
1
1
0.99999999
0.99999996
0.99999989
0.99999963
0.99999892
0.99999685
0.99999119
0.99997631
0.99993904
0.9998501
0.99964793
0.99921001
0.99830538
0.99652165
0.99316136
0.98710842
0.97667552
0.9594599
0.93225424
0.89107785
0.8314024
0.74863611
0.63889227
0.49999886
0.36249706
0.25563503
0.17568758
0.11787193
0.077321552
0.049661596
0.031269742
0.019324858
0.011734346
0.0070077174
0.0041196549
0.0023860186
0.0013625478
0.00076772841
0.00042710403
0.00023474885
0.000127548
6.8546535e-05
3.6455759e-05
1.919687e-05
1.0013354e-05
5.1762153e-06
2.6526763e-06
1.3485931e-06
6.7968091e-07
3.4122381e-07
1.6757219e-07
8.6914518e-08
3.4059166e-08
1
1
1
1
1
1
1
0.99999999
0.99999998
0.99999995
0.99999984
0.99999951
0.99999857
0.99999594
0.99998889
0.99997084
0.9999267
0.99982373
0.99959458
0.99910779
0.99811982
0.99620255
0.99264197
0.98630941
0.97551689
0.95788322
0.93025547
0.88874725
0.82896241
0.74646311
0.63750479
0.49999697
0.36382597
0.25764906
0.17789554
0.11995544
0.079111949
0.051099936
0.032366135
0.020125338
0.012297765
0.0073918414
0.0043742487
0.0025505355
0.0014664384
0.0008319664
0.0004660601
0.00025795182
0.00014113853
7.6383122e-05
4.0908684e-05
2.1692335e-05
1.1393962e-05
5.9302874e-06
3.0606588e-06
1.5651002e-06
7.9711269e-07
3.9659511e-07
2.0872992e-07
8.2830782e-08
1
1
1
1
1
1
1
1
0.99999999
0.99999997
0.99999993
0.99999978
0.99999935
0.99999814
0.99999483
0.99998618
0.99996453
0.9999128
0.99979469
0.99953701
0.99899945
0.99792629
0.99587452
0.99211482
0.98550756
0.9743656
0.95632995
0.92830089
0.88648235
0.82660339
0.74437081
0.636173
0.49999561
0.36510323
0.25959199
0.18003501
0.12198441
0.080864991
0.052516485
0.033452561
0.020923633
0.012863377
0.0077800911
0.0046333706
0.0027191652
0.0015736908
0.00089876385
0.00050686401
0.00028243365
0.0001555835
8.4773823e-05
4.5711309e-05
2.4404037e-05
1.2904159e-05
6.7632845e-06
3.5102201e-06
1.81437e-06
9.1487259e-07
4.8882457e-07
1.965335e-07
1
1
1
1
1
1
1
1
1
0.99999999
0.99999997
0.9999999
0.99999971
0.99999915
0.99999761
0.9999935
0.99998301
0.99995734
0.9998973
0.99976295
0.99947524
0.99888513
0.99772513
0.99553811
0.99158065
0.98470362
0.97322207
0.95479967
0.92638873
0.88427977
0.82432056
0.74235406
0.6348932
0.49999477
0.36633231
0.26146821
0.18210983
0.12396152
0.082582175
0.053911834
0.034529052
0.021719499
0.013430861
0.0081721745
0.0048968001
0.0028917634
0.0016842233
0.00096808311
0.00054950535
0.00030819815
0.00017089316
9.3729273e-05
5.0874837e-05
2.7337607e-05
1.4554808e-05
7.6693591e-06
4.0245276e-06
2.0571932e-06
1.116358e-06
4.5493671e-07
1
1
1
1
1
1
1
1
1
0.99999999
0.99999999
0.99999995
0.99999987
0.99999961
0.9999989
0.99999697
0.99999193
0.99997934
0.99994921
0.99988014
0.99972848
0.99940928
0.99876496
0.99751664
0.99519384
0.99104015
0.98389831
0.97208669
0.95329206
0.92451746
0.88213653
0.82210969
0.74040827
0.63366203
0.49999439
0.36751631
0.26328178
0.18412358
0.1258893
0.084264951
0.055286585
0.035595664
0.022512722
0.013999913
0.008567807
0.005164317
0.0030681822
0.0017979491
0.0010398817
0.0005939692
0.00033524691
0.00018707404
0.00010326228
5.6402668e-05
3.0512677e-05
1.6327515e-05
8.7011246e-06
4.5098328e-06
2.4864776e-06
1.0274601e-06
1
1
1
1
1
1
1
1
1
1
0.99999999
0.99999998
0.99999994
0.99999983
0.9999995
0.99999859
0.9999962
0.99999008
0.99997514
0.99994009
0.99986127
0.99969123
0.99933918
0.9986391
0.99730116
0.99484224
0.99049402
0.98309232
0.9709599
0.95180683
0.92268573
0.88004994
0.81996697
0.73852927
0.63247643
0.49999439
0.36865807
0.26503644
0.18607964
0.12777017
0.085914712
0.05664132
0.036652459
0.023303092
0.014570236
0.0089667061
0.0054356996
0.0032482692
0.0019147769
0.0011141118
0.00064023895
0.00036357456
0.00020413922
0.00011336731
6.2332013e-05
3.3879554e-05
1.834074e-05
9.6407634e-06
5.4022435e-06
2.2643472e-06
1
1
1
1
1
1
1
1
1
1
1
0.99999999
0.99999997
0.99999992
0.99999977
0.99999935
0.99999822
0.99999528
0.99998795
0.99997037
0.99992994
0.99984064
0.99965121
0.99926497
0.9985077
0.997079
0.99448383
0.98994293
0.98228633
0.96984209
0.95034379
0.92089231
0.87801756
0.81788889
0.73671324
0.6313336
0.49999467
0.36976024
0.26673567
0.18798112
0.12960635
0.087532757
0.057976578
0.037699484
0.024090398
0.015141533
0.0093685887
0.0057107229
0.0034318697
0.002034609
0.0011907263
0.00068828476
0.00039319375
0.00022205954
0.00012411869
6.8539703e-05
3.7701736e-05
2.0101993e-05
1.1451736e-05
4.8704966e-06
1
1
1
1
1
1
1
1
1
1
1
1
0.99999999
0.99999996
0.9999999
0.9999997
0.99999917
0.99999777
0.99999421
0.99998549
0.999965
0.99991872
0.99981823
0.99960839
0.99918673
0.99837095
0.99685052
0.99411912
0.98938754
0.981481
0.96873368
0.94890271
0.91913603
0.87603709
0.81587218
0.73495662
0.63023093
0.4999952
0.37082527
0.26838268
0.18983093
0.13139991
0.089120278
0.059292835
0.038736757
0.024874422
0.015713504
0.0097731703
0.0059891653
0.003618822
0.0021573574
0.001269652
0.00073812218
0.00042402063
0.00024098994
0.00013522783
7.5603096e-05
4.0894339e-05
2.3691124e-05
1.0227316e-05
1
1
1
1
1
1
1
1
1
1
1
1
0.99999999
0.99999998
0.99999995
0.99999986
0.99999962
0.99999895
0.99999724
0.99999296
0.9999827
0.999959
0.9999064
0.99979401
0.99956278
0.99910451
0.99822903
0.99661604
0.99374864
0.98882847
0.98067694
0.96763501
0.94748336
0.91741576
0.87410632
0.81391375
0.7332561
0.62916603
0.49999593
0.3718554
0.26998041
0.19163171
0.13315271
0.09067835
0.060590501
0.039764268
0.02565494
0.016285851
0.010180175
0.0062707908
0.0038089923
0.0022828782
0.0013509243
0.00078955168
0.00045638598
0.00026028361
0.00014793743
8.1191894e-05
4.7845187e-05
2.0970838e-05
1
1
1
1
1
1
1
1
1
1
1
1
1
0.99999999
0.99999998
0.99999994
0.99999982
0.99999951
0.99999869
0.99999661
0.99999152
0.99997953
0.99995234
0.99989294
0.99976795
0.99951441
0.99901841
0.99808213
0.99637591
0.99337287
0.98826632
0.9798747
0.96654635
0.94608545
0.91573035
0.87222314
0.81201069
0.73160856
0.62813668
0.49999681
0.37285272
0.27153146
0.1933859
0.13486638
0.092207952
0.061869925
0.040781979
0.026431726
0.01685831
0.010589311
0.006555438
0.0040021205
0.0024112734
0.0014340985
0.00084328517
0.00048888219
0.00028256776
0.00015736074
9.4351231e-05
4.200286e-05
1
1
1
1
1
1
1
1
1
1
1
1
1
1
0.99999999
0.99999997
0.99999992
0.99999977
0.99999939
0.99999838
0.99999588
0.99998988
0.99997599
0.99994499
0.99987832
0.99974004
0.99946328
0.99892852
0.99793046
0.99613046
0.99299227
0.98770163
0.97907476
0.96546792
0.94470863
0.91407867
0.87038551
0.81016027
0.73001111
0.62714087
0.49999775
0.37381916
0.27303808
0.1950958
0.13654229
0.093709977
0.06313147
0.041789803
0.02720455
0.017430533
0.011000447
0.0068426866
0.0041985063