/*--------------------------------*- C++ -*----------------------------------*\
  =========                 |
  \\      /  F ield         | OpenFOAM: The Open Source CFD Toolbox
   \\    /   O peration     | Website:  https://openfoam.org
    \\  /    A nd           | Version:  9
     \\/     M anipulation  |
\*---------------------------------------------------------------------------*/
FoamFile
{
    format      ascii;
    class       volScalarField;
    location    "5";
    object      T;
}
// * * * * * * * * * * * * * * * * * * * * * * * * * * * * * * * * * * * * * //

dimensions      [0 0 0 0 0 0 0];

internalField   nonuniform List<scalar> 
3600
(
0.49993195
0.13648674
0.045283275
0.016335141
0.0059725165
0.0022665841
0.00090227286
0.00036957124
0.00015112072
6.3926854e-05
2.7054526e-05
1.1457338e-05
4.8462653e-06
2.0416965e-06
8.5479863e-07
3.5529766e-07
1.4671144e-07
6.035767e-08
2.4518882e-08
9.9503991e-09
4.1149649e-09
1.7499377e-09
7.635908e-10
3.3575567e-10
1.4817355e-10
6.5862292e-11
2.8916275e-11
1.2593803e-11
5.5324316e-12
2.4497717e-12
1.0975367e-12
4.8482361e-13
2.131505e-13
9.304148e-14
4.0645216e-14
1.7811075e-14
7.8650183e-15
3.4993709e-15
1.5654967e-15
7.0194292e-16
3.1228731e-16
1.3479528e-16
4.3740448e-17
1.0823462e-17
2.7113985e-18
6.7442207e-19
1.6632277e-19
4.0298098e-20
9.4995898e-21
2.1720546e-21
4.8287436e-22
1.0501214e-22
2.250493e-23
4.7859853e-24
1.0160743e-24
2.1642348e-25
4.6438062e-26
1.0065169e-26
2.2274066e-27
4.2287865e-28
0.86371961
0.49985757
0.19695785
0.074486224
0.028801048
0.011701103
0.0048195493
0.0020389763
0.00082452092
0.00030941654
0.00012360844
5.1740777e-05
2.2070491e-05
9.4758684e-06
4.0566418e-06
1.8670434e-06
8.6554298e-07
3.8361796e-07
1.6676789e-07
7.2077027e-08
3.1189869e-08
1.3561139e-08
5.9127574e-09
2.5060359e-09
9.8951122e-10
4.1607352e-10
1.8168871e-10
8.0161256e-11
3.5453511e-11
1.5522341e-11
7.3516264e-12
3.47762e-12
1.5795407e-12
7.056075e-13
3.1381263e-13
1.3951524e-13
6.2086329e-14
2.7662356e-14
1.2332839e-14
5.4834311e-15
2.3811181e-15
9.5194539e-16
3.9702431e-16
1.268043e-16
3.9464219e-17
1.2367885e-17
3.831792e-18
1.1947035e-18
3.7771842e-19
1.2102744e-19
3.907411e-20
1.2611513e-20
4.0441994e-21
1.2846184e-21
4.0400039e-22
1.2590778e-22
3.8948824e-23
1.1955137e-23
3.7170549e-24
9.3438454e-25
0.95467931
0.80316687
0.49998951
0.22827288
0.097518343
0.040239414
0.016339468
0.0064512368
0.002704207
0.0012276131
0.00054937621
0.00024062964
0.00010329085
4.4159844e-05
1.9062176e-05
7.357298e-06
2.8937911e-06
1.2322137e-06
5.3761598e-07
2.3486533e-07
1.0257836e-07
4.4881515e-08
1.9680762e-08
8.4749963e-09
4.27957e-09
1.9844077e-09
8.8546719e-10
3.9162832e-10
1.7316971e-10
7.6489151e-11
3.0522e-11
1.2364496e-11
5.362726e-12
2.3823102e-12
1.0618777e-12
4.7326575e-13
2.1097128e-13
9.407935e-14
4.1946199e-14
1.865942e-14
8.1354238e-15
4.0916314e-15
1.9603612e-15
8.5658362e-16
3.6355155e-16
1.3076376e-16
4.7245744e-17
1.6301229e-17
5.4122324e-18
1.748554e-18
5.573386e-19
1.7756244e-19
5.6949285e-20
1.8404739e-20
5.979278e-21
1.9465125e-21
6.3342226e-22
2.0518525e-22
6.7623144e-23
1.788268e-23
0.98382917
0.92509353
0.77194028
0.49995905
0.24897338
0.11610136
0.051978525
0.022811817
0.0097350639
0.0040512677
0.0016489485
0.0006645967
0.00027944735
0.00012048148
5.1936998e-05
2.5417119e-05
1.2058579e-05
5.4004875e-06
2.3722835e-06
1.0386792e-06
4.5539017e-07
2.000879e-07
8.780939e-08
3.8503822e-08
1.4649934e-08
6.0120204e-09
2.6248855e-09
1.1655224e-09
5.1783371e-10
2.2848065e-10
1.0760963e-10
5.2563862e-11
2.4068971e-11
1.0776058e-11
4.8050423e-12
2.1429978e-12
9.5620767e-13
4.2671897e-13
1.9033819e-13
8.4660989e-14
3.7670927e-14
1.4696009e-14
6.0731888e-15
2.6612047e-15
1.1700046e-15
5.1297356e-16
1.8351885e-16
6.8207849e-17
2.5712899e-17
9.7356454e-18
3.6559565e-18
1.3440618e-18
4.8224915e-19
1.6953847e-19
5.8699414e-20
2.0098277e-20
6.8270334e-21
2.2982557e-21
7.8709337e-22
2.1494582e-22
0.99384836
0.97192227
0.90183046
0.75118458
0.49991216
0.26404739
0.13076872
0.061714763
0.028204258
0.012609449
0.0055971897
0.002445754
0.0010656591
0.00046525467
0.00020507159
8.3464629e-05
3.3506282e-05
1.429021e-05
6.2633671e-06
2.7654053e-06
1.2242377e-06
5.4231068e-07
2.3986772e-07
1.0411641e-07
5.2309269e-08
2.4787391e-08
1.117748e-08
4.9691916e-09
2.205743e-09
9.762611e-10
4.1994945e-10
1.62934e-10
6.8419591e-11
3.0163108e-11
1.3467463e-11
6.0221346e-12
2.6920516e-12
1.202957e-12
5.3724164e-13
2.393394e-13
1.0568422e-13
5.1189592e-14
2.4822772e-14
1.1386839e-14
5.1039176e-15
2.2786235e-15
1.0024692e-15
4.2121664e-16
1.6238507e-16
5.9438388e-17
2.1084327e-17
7.521788e-18
2.7187363e-18
9.8876307e-19
3.5932239e-19
1.2990718e-19
4.6639325e-20
1.6557219e-20
5.9833295e-21
1.7079871e-21
0.99744388
0.98987744
0.95866179
0.88423241
0.73551452
0.49986929
0.27616925
0.14347817
0.071001658
0.033830931
0.01564465
0.0070773835
0.0031429883
0.0013836546
0.00060354937
0.00026829116
0.00012152321
5.401901e-05
2.4079783e-05
1.0791181e-05
4.8833377e-06
2.1963071e-06
9.7416154e-07
4.3116107e-07
1.6988946e-07
6.8050151e-08
2.9406984e-08
1.3066775e-08
5.824753e-09
2.599475e-09
1.1347466e-09
5.8214935e-10
2.7454382e-10
1.241064e-10
5.5523943e-11
2.482266e-11
1.110115e-11
4.9645712e-12
2.2191328e-12
9.9075329e-13
4.4069553e-13
1.8776754e-13
7.3859822e-14
3.1310272e-14
1.3855209e-14
6.204644e-15
2.7637988e-15
1.2202601e-15
5.2830566e-16
2.1711529e-16
9.3810636e-17
3.841888e-17
1.5080555e-17
5.7656242e-18
2.1654871e-18
8.0314741e-19
2.9532572e-19
1.0740443e-19
3.9879878e-20
1.1661713e-20
0.9989467
0.99615594
0.98316994
0.94840045
0.86882938
0.72376627
0.49986578
0.28580401
0.15407156
0.079211301
0.039208948
0.018819191
0.0088015412
0.0040356322
0.0018263928
0.00081515755
0.00036019889
0.00015896499
6.9535881e-05
3.0177327e-05
1.2915869e-05
5.5272764e-06
2.400891e-06
1.0551217e-06
5.1972237e-07
2.5398553e-07
1.1658905e-07
5.2226137e-08
2.3286411e-08
1.0351722e-08
4.6099303e-09
1.7886563e-09
7.3042338e-10
3.2000216e-10
1.432678e-10
6.4288137e-11
2.882562e-11
1.2921369e-11
5.7904654e-12
2.5905426e-12
1.1578205e-12
5.1119927e-13
2.6113454e-13
1.2347915e-13
5.6037071e-14
2.5170952e-14
1.1294255e-14
5.0464246e-15
2.2366788e-15
9.5284155e-16
3.6180988e-16
1.3974524e-16
5.5418187e-17
2.2017004e-17
8.7349654e-18
3.4400926e-18
1.3407516e-18
5.1433907e-19
2.0138848e-19
6.1482884e-20
0.99957426
0.99845466
0.99289612
0.97777772
0.93804352
0.85660415
0.7140351
0.49999471
0.294
0.16341693
0.086713888
0.044286697
0.02190143
0.010547298
0.004968793
0.0023033834
0.0010532399
0.00047677432
0.0002149029
9.6526388e-05
4.3501519e-05
1.9618811e-05
8.7653165e-06
3.9227378e-06
1.6619565e-06
6.8689264e-07
2.9141216e-07
1.2824515e-07
5.721285e-08
2.5621091e-08
1.1302076e-08
5.7287697e-09
2.758007e-09
1.259378e-09
5.6607153e-10
2.5372061e-10
1.137735e-10
5.1065011e-11
2.2927592e-11
1.0284588e-11
4.5906153e-12
2.0504137e-12
8.0087731e-13
3.2726101e-13
1.4354874e-13
6.4492421e-14
2.9069412e-14
1.3057024e-14
5.8403936e-15
2.5576175e-15
1.3045084e-15
5.9439358e-16
2.5377527e-16
1.0626855e-16
4.2937766e-17
1.7010266e-17
6.6766689e-18
2.5852801e-18
1.0253359e-18
3.1706445e-19
0.99983849
0.99924819
0.99729699
0.99037551
0.97180866
0.92896433
0.84584932
0.70595398
0.50002176
0.30095525
0.17168655
0.093637505
0.049161472
0.024989526
0.012361429
0.0059755689
0.0028337034
0.0013227813
0.00060939778
0.00027784061
0.00012553521
5.6398274e-05
2.5281459e-05
1.1256338e-05
5.0577289e-06
2.3191389e-06
1.048414e-06
4.7144795e-07
2.1277041e-07
9.6260553e-08
4.3274369e-08
1.7645177e-08
7.2207145e-09
3.1252879e-09
1.3956128e-09
6.2834107e-10
2.8345125e-10
1.2797436e-10
5.771421e-11
2.5962587e-11
1.1625212e-11
5.0990495e-12
2.5308751e-12
1.2263497e-12
5.6286184e-13
2.5408688e-13
1.14484e-13
5.1526724e-14
2.3065006e-14
1.0320754e-14
4.0410009e-15
1.6485428e-15
7.1211368e-16
3.1184067e-16
1.3110933e-16
5.5102078e-17
2.2838633e-17
9.33674e-18
3.9221999e-18
1.2714973e-18
0.99993641
0.99965705
0.9989325
0.99585269
0.98750425
0.96612021
0.92075373
0.83650022
0.69904559
0.50004874
0.30699362
0.17907041
0.099994863
0.053787382
0.028018167
0.014198189
0.0070265715
0.0034075787
0.0016243928
0.00076325256
0.00035431197
0.00016284653
7.425627e-05
3.3635334e-05
1.513003e-05
6.7619793e-06
3.0203058e-06
1.3407989e-06
5.9093713e-07
2.5919174e-07
1.147787e-07
5.3581346e-08
2.519642e-08
1.163686e-08
5.3600573e-09
2.4358655e-09
1.1065671e-09
5.0110898e-10
2.2629413e-10
1.0187842e-10
4.5598718e-11
2.0178771e-11
8.2287143e-12
3.2753782e-12
1.4050344e-12
6.3132466e-13
2.8628053e-13
1.2940328e-13
5.8116568e-14
2.5625172e-14
1.2712259e-14
6.1836988e-15
2.8339717e-15
1.2746182e-15
5.5814288e-16
2.39941e-16
1.0249636e-16
4.2128608e-17
1.765346e-17
5.7055897e-18
0.99997374
0.99985173
0.99955349
0.99820442
0.99454807
0.98430806
0.96080061
0.91320614
0.8282811
0.69301784
0.50005849
0.31233394
0.18575811
0.10590723
0.058212091
0.030994785
0.016052366
0.0081154103
0.004017435
0.0019528537
0.00093436528
0.00044099096
0.00020575942
9.5045539e-05
4.3570192e-05
1.9839898e-05
8.9944825e-06
4.0681766e-06
1.8373673e-06
8.2822981e-07
3.7245019e-07
1.6408129e-07
7.1731305e-08
3.116795e-08
1.3422233e-08
5.8680483e-09
2.5915556e-09
1.1643543e-09
5.2531395e-10
2.3697151e-10
1.066355e-10
4.7476117e-11
2.2797132e-11
1.1373546e-11
5.3341898e-12
2.4504622e-12
1.114675e-12
5.0366617e-13
2.2601452e-13
1.0097888e-13
4.1807893e-14
1.6611821e-14
7.1134999e-15
3.1891538e-15
1.4447192e-15
6.4679851e-16
2.8707834e-16
1.2238171e-16
5.4219824e-17
1.8472616e-17
0.99998914
0.99993691
0.99980911
0.99922373
0.99763076
0.9928886
0.98119445
0.95566324
0.9063247
0.82089612
0.68771071
0.50006399
0.31708774
0.19183856
0.11141336
0.062433195
0.033905395
0.017911375
0.0092345411
0.0046599459
0.0023074567
0.0011236794
0.00053926782
0.00025552535
0.00011972972
5.5561653e-05
2.5578512e-05
1.1694901e-05
5.3160563e-06
2.404878e-06
1.0836526e-06
4.891894e-07
2.2081423e-07
1.0032878e-07
4.584891e-08
2.073936e-08
9.3517691e-09
4.2264796e-09
1.9179361e-09
8.736975e-10
3.9840019e-10
1.7989593e-10
7.6360107e-11
3.098147e-11
1.3111378e-11
5.8509555e-12
2.6586697e-12
1.2098694e-12
5.4722886e-13
2.4344181e-13
1.1454126e-13
5.7550768e-14
2.7045521e-14
1.2386093e-14
5.6286152e-15
2.5397515e-15
1.1491095e-15
5.0324967e-16
2.2756201e-16
7.7157958e-17
0.99999551
0.9999732
0.99991786
0.99966052
0.99898347
0.9968099
0.99120046
0.97805623
0.95080145
0.89995591
0.81423416
0.68296493
0.50006818
0.3213723
0.19742098
0.11656867
0.066467807
0.03674732
0.019766484
0.01037618
0.0053297687
0.0026851139
0.0013295967
0.00064837067
0.00031189469
0.00014823595
6.9715201e-05
3.2490503e-05
1.5023614e-05
6.8998834e-06
3.1501165e-06
1.4310125e-06
6.4705126e-07
2.9143342e-07
1.3105613e-07
5.8903348e-08
2.6369616e-08
1.1742781e-08
5.2096767e-09
2.2998979e-09
1.0117497e-09
4.5111731e-10
2.0999578e-10
1.0084167e-10
4.7900376e-11
2.2173876e-11
1.0208358e-11
4.6723316e-12
2.1180952e-12
9.4640094e-13
3.9984169e-13
1.5925077e-13
6.6877405e-14
3.0052862e-14
1.3772903e-14
6.3064997e-15
2.8788665e-15
1.2983543e-15
6.0498011e-16
2.1093861e-16
0.99999814
0.99998857
0.99996447
0.99984953
0.99957166
0.99857601
0.99596225
0.98941661
0.97497606
0.94616035
0.89405657
0.80815704
0.67868956
0.50006545
0.32525778
0.20256788
0.12140709
0.070326424
0.03951877
0.021612026
0.011535017
0.0060235049
0.0030842195
0.0015515762
0.00076824784
0.00037499958
0.00018072597
8.6115549e-05
4.062239e-05
1.8992747e-05
8.8111789e-06
4.0607875e-06
1.8608879e-06
8.4862664e-07
3.8554398e-07
1.7485912e-07
7.9221179e-08
3.5862231e-08
1.6215068e-08
7.3556917e-09
3.3471661e-09
1.5108503e-09
6.6637287e-10
2.8962345e-10
1.2416577e-10
5.3910494e-11
2.3806813e-11
1.0665034e-11
4.8147693e-12
2.1629849e-12
1.0242214e-12
5.1461662e-13
2.4691164e-13
1.1556857e-13
5.3486886e-14
2.4583201e-14
1.1255001e-14
5.0777902e-15
2.393883e-15
8.5135329e-16
0.99999923
0.9999951
0.99998458
0.99993297
0.99982169
0.99936749
0.99817454
0.99500297
0.98761193
0.97193815
0.9417457
0.88855438
0.80258511
0.67480089
0.50005695
0.32880796
0.20733803
0.125962
0.074020396
0.042219039
0.023442949
0.012705918
0.0067375034
0.00350263
0.0017885458
0.00089855315
0.00044482979
0.00021730483
0.00010489111
5.0087383e-05
2.3687767e-05
1.1106863e-05
5.1688256e-06
2.3894003e-06
1.0982453e-06
5.0242097e-07
2.2896986e-07
1.0401012e-07
4.7112449e-08
2.1277061e-08
9.5897724e-09
4.3197068e-09
1.9505625e-09
8.8440574e-10
4.0718585e-10
1.8645214e-10
8.4735423e-11
3.845202e-11
1.7443607e-11
7.9048396e-12
3.450729e-12
1.4316363e-12
6.089222e-13
2.6860298e-13
1.2182225e-13
5.5831093e-14
2.5711168e-14
1.17046e-14
5.5834287e-15
2.0315738e-15
0.99999968
0.99999791
0.99999338
0.99997058
0.99992459
0.99971843
0.99918412
0.99768237
0.99400642
0.98577181
0.96896977
0.93753069
0.88341095
0.79744246
0.67124437
0.50004421
0.33206899
0.21177722
0.13026171
0.07756113
0.044849149
0.025256051
0.013885115
0.0074689183
0.003938581
0.0020396613
0.0010389721
0.00052132729
0.00025802392
0.00012612203
6.0954152e-05
2.9158876e-05
1.3821424e-05
6.4977741e-06
3.032467e-06
1.4062382e-06
6.4857855e-07
2.9775827e-07
1.3615703e-07
6.2041857e-08
2.8183613e-08
1.2770859e-08
5.7736264e-09
2.6041667e-09
1.1715542e-09
5.2615325e-10
2.3577351e-10
1.0533855e-10
4.699872e-11
2.1044423e-11
9.6181686e-12
4.5182468e-12
2.1115185e-12
9.7817838e-13
4.5411901e-13
2.1041668e-13
9.7614722e-14
4.4702743e-14
2.1412337e-14
7.8150248e-15
0.99999987
0.99999918
0.99999685
0.99998836
0.99996446
0.99987928
0.99963603
0.99894054
0.99715462
0.99295565
0.98392321
0.96606632
0.93350735
0.87858228
0.79267597
0.66797251
0.50003023
0.33508075
0.21592468
0.134331
0.080959155
0.047410591
0.027048805
0.015069336
0.008215077
0.0043903965
0.0023040588
0.0011891544
0.00060442039
0.00030293483
0.00014989273
7.3301347e-05
3.5465134e-05
1.6993346e-05
8.0713254e-06
3.8035159e-06
1.7798399e-06
8.2773729e-07
3.8286528e-07
1.7623601e-07
8.0774964e-08
3.689124e-08
1.6798961e-08
7.630541e-09
3.4602542e-09
1.5697961e-09
7.12086e-10
3.2276587e-10
1.4607684e-10
6.6031658e-11
2.9552998e-11
1.3116838e-11
5.7943069e-12
2.550594e-12
1.1142211e-12
4.9357435e-13
2.2213934e-13
9.970062e-14
4.7441615e-14
1.7232602e-14
0.99999994
0.99999967
0.99999852
0.99999545
0.99998285
0.99995004
0.99983683
0.99952167
0.99867036
0.996583
0.99187005
0.98207067
0.96323381
0.92966014
0.87403685
0.7882384
0.66494893
0.50001685
0.33787581
0.21981393
0.13819208
0.084224717
0.049905542
0.028819626
0.016255962
0.0089737101
0.0048565576
0.0025808959
0.0013487271
0.00069400496
0.00035205802
0.00017626642
8.7194765e-05
4.2659216e-05
2.0660744e-05
9.9146204e-06
4.7181789e-06
2.228414e-06
1.0453769e-06
4.8741861e-07
2.26025e-07
1.0430636e-07
4.7931479e-08
2.1943722e-08
1.0013202e-08
4.5570193e-09
2.0697861e-09
9.3839048e-10
4.2469101e-10
1.9185734e-10
8.6766055e-11
3.931367e-11
1.7852073e-11
8.1598051e-12
3.7575942e-12
1.7143281e-12
7.813493e-13
3.5339382e-13
1.6676401e-13
6.0910456e-14
0.99999998
0.99999986
0.99999934
0.99999808
0.99999211
0.99997926
0.99992638
0.9997861
0.99938689
0.9983715
0.99597508
0.99075607
0.98022276
0.96047268
0.92597713
0.86974537
0.78409112
0.6621424
0.50000522
0.34048119
0.22347336
0.14186423
0.087367029
0.052336295
0.030567326
0.017442759
0.0097427953
0.005335664
0.0028693723
0.0015173207
0.00078996682
0.00040540389
0.00020529891
0.00010269475
5.0791257e-05
2.4859934e-05
1.205178e-05
5.7915358e-06
2.7609557e-06
1.3066425e-06
6.1429133e-07
2.8707069e-07
1.3343519e-07
6.1725569e-08
2.8431828e-08
1.304807e-08
5.9694159e-09
2.7235264e-09
1.2395132e-09
5.6284636e-10
2.5513569e-10
1.1543873e-10
5.2167442e-11
2.3557365e-11
1.0620019e-11
4.7867161e-12
2.1591355e-12
9.6092553e-13
4.5172372e-13
1.6249264e-13
0.99999999
0.99999994
0.99999971
0.99999916
0.99999649
0.99999111
0.9999672
0.99990464
0.99972031
0.99923525
0.99804387
0.99533615
0.98961944
0.97838524
0.95778214
0.92244628
0.86568227
0.78020091
0.6595266
0.49999588
0.34291954
0.22692731
0.14536437
0.090394523
0.054705214
0.032291084
0.018627852
0.01052055
0.0058264362
0.0031687303
0.0016945695
0.00089218011
0.00046296948
0.00023703539
0.00011985608
5.9908893e-05
2.9626538e-05
1.4507124e-05
7.0392264e-06
3.3870708e-06
1.6172355e-06
7.6674372e-07
3.6118068e-07
1.6914209e-07
7.8789597e-08
3.6526462e-08
1.6861517e-08
7.7542526e-09
3.5539808e-09
1.6240529e-09
7.402992e-10
3.3677437e-10
1.5296453e-10
6.9379746e-11
3.1482567e-11
1.4290125e-11
6.5008525e-12
2.9279724e-12
1.3826571e-12
5.0228768e-13
1
0.99999997
0.99999987
0.99999963
0.99999846
0.99999609
0.99998544
0.99995771
0.99987336
0.99964535
0.99906443
0.99769155
0.99466954
0.98846612
0.97656157
0.9551605
0.91905564
0.861825
0.7765392
0.65707941
0.49998905
0.34520971
0.2301963
0.14870704
0.093314676
0.057014551
0.033990332
0.019809679
0.011305423
0.0063277253
0.0034782716
0.0018801234
0.0010005156
0.00052474206
0.00027151227
0.00013872746
7.0056137e-05
3.4994363e-05
1.7304296e-05
8.4767516e-06
4.1164408e-06
1.9829519e-06
9.4813289e-07
4.5024633e-07
2.1247038e-07
9.9688581e-08
4.6527943e-08
2.1612973e-08
9.9964349e-09
4.6056945e-09
2.1147313e-09
9.6811074e-10
4.4208262e-10
2.0143839e-10
9.1623833e-11
4.160662e-11
1.8918071e-11
8.5052121e-12
4.0190173e-12
1.4578176e-12
1
0.99999999
0.99999994
0.99999984
0.99999932
0.99999828
0.99999348
0.99998144
0.99994289
0.99983734
0.99955868
0.99887649
0.99731572
0.99397923
0.98729998
0.97475453
0.95260514
0.91579463
0.85815394
0.773082
0.6547822
0.49998477
0.34736745
0.23329775
0.15190487
0.096134191
0.059266513
0.035664766
0.020986972
0.01209608
0.0068385108
0.0037973541
0.0020736474
0.0011148395
0.00059069883
0.00030875689
0.00015935124
8.1273294e-05
4.0995461e-05
2.0466322e-05
1.011955e-05
4.9588851e-06
2.4097835e-06
1.1619851e-06
5.5628399e-07
2.6454448e-07
1.2503435e-07
5.8762689e-08
2.7473872e-08
1.2784402e-08
5.9234886e-09
2.734077e-09
1.2577085e-09
5.7684048e-10
2.6391444e-10
1.2043697e-10
5.4985914e-11
2.4805503e-11
1.1754833e-11
4.2747934e-12
1
0.99999999
0.99999998
0.99999992
0.99999973
0.99999919
0.99999721
0.99999172
0.99997451
0.9999259
0.99979429
0.99946121
0.9986716
0.99691862
0.99326807
0.98612455
0.97296581
0.95011358
0.91265377
0.85465253
0.76980913
0.65261949
0.49998289
0.34940588
0.23624655
0.1549689
0.098859151
0.061463309
0.037314338
0.022158741
0.012891393
0.0073578901
0.0041253871
0.0022748177
0.0012350111
0.00066080559
0.00034878642
0.00018176259
9.3596384e-05
4.7659655e-05
2.4015244e-05
1.1982737e-05
5.9242118e-06
2.9038183e-06
1.4119483e-06
6.8141674e-07
3.2656888e-07
1.5549591e-07
7.3595504e-08
3.46394e-08
1.6220725e-08
7.5603994e-09
3.5090528e-09
1.6224979e-09
7.4774154e-10
3.4341752e-10
1.5766168e-10
7.1449589e-11
3.4005143e-11
1.2407207e-11
1
1
0.99999999
0.99999996
0.99999989
0.9999996
0.99999888
0.99999618
0.9999887
0.99996647
0.99990507
0.99974491
0.99935267
0.99845072
0.9965018
0.99253877
0.98494262
0.97119686
0.94768345
0.90962503
0.85130672
0.76670367
0.65057817
0.49998304
0.35133605
0.23905555
0.15790897
0.10149521
0.063607204
0.038939233
0.023324235
0.013690405
0.0078850534
0.004461816
0.0024833144
0.0013608801
0.00073501545
0.00039160736
0.00020598931
0.00010705696
5.5014386e-05
2.7972013e-05
1.408104e-05
7.0221715e-06
3.4712219e-06
1.701781e-06
8.2786637e-07
3.9982258e-07
1.9179258e-07
9.1422536e-08
4.3323721e-08
2.0419243e-08
9.5760504e-09
4.4703466e-09
2.0784343e-09
9.6225415e-10
4.4500738e-10
2.0294253e-10
9.7188191e-11
3.5632291e-11
1
1
1
0.99999998
0.99999995
0.99999981
0.99999953
0.99999827
0.99999502
0.99998486
0.99995656
0.99988055
0.99968883
0.99923333
0.99821455
0.99606689
0.99179369
0.98375669
0.96944891
0.9453128
0.90670153
0.84810459
0.76375115
0.64864696
0.49998473
0.3531675
0.24173611
0.16073401
0.10404773
0.0657005
0.040539816
0.024482883
0.014492281
0.0084192549
0.0048061064
0.0026988139
0.0014922834
0.00081326808
0.00043721538
0.00023205174
0.00012168202
6.3084602e-05
3.2356377e-05
1.6428707e-05
8.2624044e-06
4.1182089e-06
2.035338e-06
9.9794816e-07
4.8565819e-07
2.3469566e-07
1.1267434e-07
5.3762449e-08
2.5506763e-08
1.2037164e-08
5.653538e-09
2.6420858e-09
1.2326062e-09
5.6646651e-10
2.7341793e-10
1.0087304e-10
1
1
1
0.99999999
0.99999998
0.99999992
0.99999979
0.99999922
0.99999782
0.99999317
0.99998026
0.99994459
0.9998522
0.99962595
0.99910339
0.99796387
0.99561545
0.99103506
0.9825691
0.96772309
0.94299991
0.90387729
0.84503571
0.76093896
0.64681598
0.49998738
0.35490856
0.24429844
0.16345221
0.10652173
0.067745481
0.042116545
0.025634219
0.015296262
0.0089597847
0.0051577319
0.002920985
0.0016290447
0.00089549028
0.00048559596
0.00025996316
0.0001374942
7.189281e-05
3.7186866e-05
1.9039479e-05
9.6544131e-06
4.8510208e-06
2.4165551e-06
1.1940613e-06
5.8549673e-07
2.8502622e-07
1.3781466e-07
6.6212935e-08
3.1622264e-08
1.5020457e-08
7.0940802e-09
3.3428855e-09
1.5500689e-09
7.5518879e-10
2.8073325e-10
1
1
1
1
0.99999999
0.99999996
0.99999991
0.99999965
0.99999905
0.99999693
0.99999108
0.9999745
0.99993052
0.9998198
0.99955628
0.99896311
0.99769951
0.99514898
0.990265
0.98138196
0.96602044
0.94074324
0.90114692
0.8420908
0.7582559
0.64507643
0.49999049
0.35656673
0.24675177
0.16607111
0.10892194
0.069744316
0.043669883
0.026777818
0.016101625
0.0095059512
0.0055161676
0.0031494888
0.0017709765
0.00098159777
0.0005367257
0.00028973062
0.00015451213
8.145921e-05
4.2480827e-05
2.1926586e-05
1.1207547e-05
5.6759112e-06
2.8494384e-06
1.4186833e-06
7.0082586e-07
3.43654e-07
1.6734227e-07
8.0951624e-08
3.8924475e-08
1.8597498e-08
8.8612373e-09
4.1500791e-09
2.0434568e-09
7.6630241e-10
1
1
1
1
1
0.99999998
0.99999996
0.99999984
0.99999959
0.9999986
0.99999599
0.99998834
0.99996764
0.99991415
0.99978328
0.9994798
0.99881284
0.9974223
0.99466897
0.98948548
0.9801972
0.96434179
0.9385412
0.89850537
0.83926137
0.75569185
0.64342046
0.49999368
0.35814877
0.24910448
0.16859753
0.11125262
0.071698984
0.045200237
0.02791326
0.016907665
0.010057076
0.005880892
0.0033839819
0.0019178832
0.0010714978
0.00059057398
0.00032135578
0.00017275092
9.1801903e-05
4.8254499e-05
2.5102759e-05
1.2930995e-05
6.5991333e-06
3.3380551e-06
1.6743655e-06
8.3319517e-07
4.1150064e-07
2.0178177e-07
9.8294579e-08
4.7548922e-08
2.2929186e-08
1.085582e-08
5.4081685e-09
2.0479676e-09
1
1
1
1
1
0.99999999
0.99999998
0.99999993
0.99999982
0.99999937
0.9999982
0.99999469
0.99998504
0.99995951
0.9998954
0.99974254
0.99939661
0.99865296
0.99713312
0.99417684
0.98869832
0.9790165
0.96268772
0.93639213
0.89594788
0.8365396
0.75323764
0.64184106
0.4999967
0.35966075
0.25136402
0.17103758
0.1135176
0.073611228
0.046707929
0.029040116
0.017713693
0.010612498
0.0062513935
0.0036241228
0.0020695659
0.0011650922
0.00064710476
0.000354836
0.00019222265
0.00010293713
5.4523108e-05
2.8580262e-05
1.4833788e-05
7.6269328e-06
3.8865294e-06
1.9637231e-06
9.8422613e-07
4.8951341e-07
2.417396e-07
1.1847783e-07
5.7865966e-08
2.7715542e-08
1.3982725e-08
5.3516054e-09
1
1
1
1
1
1
0.99999999
0.99999997
0.99999992
0.99999972
0.99999919
0.99999759
0.99999313
0.99998106
0.99995005
0.99987414
0.99969755
0.9993068
0.99848386
0.9968328
0.99367391
0.98790514
0.97784125
0.96105855
0.93429427
0.89346985
0.83391827
0.75088498
0.640332
0.49999939
0.36110807
0.25353703
0.17339666
0.11572025
0.075482568
0.04819321
0.030157961
0.018519053
0.011171586
0.006627179
0.0038695781
0.0022258266
0.0012622801
0.00070627828
0.00039016521
0.0002129369
0.00011487951
6.1300968e-05
3.2370926e-05
1.6924796e-05
8.7655516e-06
4.4990227e-06
2.2894655e-06
1.1555391e-06
5.7881698e-07
2.8757855e-07
1.4235006e-07
6.9014799e-08
3.5288386e-08
1.3660638e-08
1
1
1
1
1
1
1
0.99999999
0.99999997
0.99999987
0.99999964
0.99999891
0.99999686
0.99999121
0.99997637
0.99993916
0.99985031
0.99964828
0.99921051
0.99830598
0.99652216
0.99316139
0.98710735
0.97667257
0.95945434
0.93224575
0.89106694
0.83139072
0.7486264
0.63888771
0.50000165
0.36249549
0.25562934
0.17567953
0.11786355
0.077314347
0.049656291
0.031266397
0.019323133
0.011733748
0.0070077825
0.004120028
0.0023864719
0.0013629602
0.00076805245
0.0004273348
0.00023490118
0.00012764228
6.8601589e-05
3.6486175e-05
1.9212765e-05
1.0021183e-05
5.1798195e-06
2.6541996e-06
1.3491606e-06
6.7984723e-07
3.4124086e-07
1.67549e-07
8.6884097e-08
3.4041437e-08
1
1
1
1
1
1
1
0.99999999
0.99999998
0.99999994
0.99999984
0.99999951
0.99999857
0.99999595
0.99998891
0.99997088
0.99992677
0.99982385
0.99959473
0.99910791
0.99811974
0.99620197
0.99264038
0.98630618
0.97551136
0.95787498
0.93024469
0.88873502
0.82895088
0.74645516
0.63750328
0.5000034
0.36382722
0.25764608
0.17789041
0.11995015
0.079107789
0.051097382
0.032365082
0.020125384
0.012298445
0.0073927702
0.0043751702
0.0025513155
0.0014670327
0.00083238399
0.00046633431
0.00025812131
0.00014123749
7.6437748e-05
4.0937121e-05
2.1706206e-05
1.1400213e-05
5.9328119e-06
3.0615017e-06
1.5652664e-06
7.9704989e-07
3.9649386e-07
2.0863557e-07
8.2780428e-08
1
1
1
1
1
1
1
1
0.99999999
0.99999997
0.99999993
0.99999978
0.99999935
0.99999814
0.99999484
0.99998619
0.99996455
0.99991283
0.9997947
0.99953694
0.99899917
0.99792555
0.99587294
0.99211187
0.98550267
0.97435832
0.95632019
0.92828924
0.88647029
0.82659323
0.74436527
0.63617437
0.50000465
0.36510696
0.25959184
0.18003311
0.12198252
0.080864062
0.052516732
0.033453741
0.020925326
0.012865188
0.0077817435
0.0046347216
0.0027201797
0.0015744001
0.00089922933
0.00050715198
0.00028260185
0.00015567615
8.4821716e-05
4.5734287e-05
2.4414032e-05
1.2907884e-05
6.764262e-06
3.5101675e-06
1.8140309e-06
9.1455358e-07
4.8856702e-07
1.9640279e-07
1
1
1
1
1
1
1
1
1
0.99999999
0.99999997
0.9999999
0.99999971
0.99999915
0.99999761
0.9999935
0.99998301
0.99995733
0.99989726
0.99976284
0.99947494
0.99888446
0.99772381
0.99553573
0.99157674
0.98469774
0.97321398
0.95478962
0.92637759
0.8842692
0.82431278
0.74235135
0.63489712
0.50000541
0.36633807
0.26147078
0.18211116
0.12396297
0.082584318
0.053914639
0.034532177
0.021722552
0.013433545
0.0081743386
0.004898419
0.0028928964
0.0016849688
0.00096854529
0.00054977532
0.0003083462
0.00017096874
9.3764541e-05
5.0889261e-05
2.7342176e-05
1.4555265e-05
7.6684682e-06
4.0234289e-06
2.0563328e-06
1.1157151e-06
4.5462062e-07
1
1
1
1
1
1
1
1
1
1
0.99999998
0.99999996
0.99999987
0.99999961
0.9999989
0.99999697
0.99999192
0.99997933
0.99994917
0.99988004
0.99972824
0.99940878
0.99876399
0.99751491
0.99519097
0.99103577
0.98389216
0.97207877
0.95328285
0.92450803
0.8821285
0.82210497
0.74040852
0.63366808
0.50000573
0.36752359
0.26328675
0.18412782
0.1258937
0.08426971
0.055291458
0.035600264
0.02251672
0.014003133
0.0085702255
0.0051660188
0.0030693074
0.0017986487
0.0010402898
0.00059419105
0.00033535774
0.00018712332
0.00010328018
5.6406249e-05
3.0510783e-05
1.6324309e-05
8.6981936e-06
4.5077368e-06
2.4849832e-06
1.0267408e-06
1
1
1
1
1
1
1
1
1
1
0.99999999
0.99999998
0.99999994
0.99999983
0.9999995
0.99999859
0.99999619
0.99999007
0.99997511
0.99994002
0.99986111
0.9996909
0.99933853
0.99863793
0.99729921
0.99483922
0.99048969
0.9830866
0.97095301
0.95179943
0.92267891
0.88004514
0.81996563
0.73853238
0.63248409
0.50000567
0.36866633
0.26504329
0.1860862
0.12777686
0.085921394
0.056647594
0.036657941
0.023307547
0.014573616
0.0089691061
0.0054372969
0.0032492645
0.0019153549
0.0011144211
0.00064038771
0.00036363498
0.00020415568
0.0001133649
6.2323566e-05
3.3870892e-05
1.8333783e-05
9.6360413e-06
5.3989763e-06
2.2627971e-06
1
1
1
1
1
1
1
1
1
1
1
0.99999999
0.99999997
0.99999992
0.99999977
0.99999935
0.99999822
0.99999527
0.99998793
0.99997033
0.99992984
0.99984044
0.9996508
0.99926424
0.99850647
0.99707707
0.994481
0.98993912
0.98228165
0.96983692
0.95033886
0.92088864
0.87801628
0.81789088
0.73671883
0.63134229
0.50000527
0.36976891
0.26674374
0.18798924
0.12961449
0.087540519
0.057983485
0.0377052
0.024094804
0.0151447
0.0093707123
0.005712047
0.0034326309
0.0020350045
0.0011909035
0.00068834353
0.00039319601
0.0002220402
0.00012409518
6.851947e-05
3.7686576e-05
2.0092029e-05
1.1444977e-05
4.867323e-06
1
1
1
1
1
1
1
1
1
1
1
1
0.99999999
0.99999996
0.9999999
0.9999997
0.99999917
0.99999777
0.9999942
0.99998547
0.99996495
0.9999186
0.999818
0.99960796
0.999186
0.99836979
0.9968488
0.99411679
0.98938464
0.9814778
0.96873067
0.94890061
0.91913567
0.8760392
0.81587711
0.7349641
0.63024001
0.5000046
0.37083374
0.26839122
0.18983971
0.13140856
0.089128221
0.059299593
0.03874208
0.024878308
0.01571613
0.009774802
0.0059900839
0.0036192734
0.0021575309
0.0012696788
0.00073808401
0.00042396341
0.0002409357
0.000135185
7.5572293e-05
4.0874504e-05
2.3677845e-05
1.0221128e-05
1
1
1
1
1
1
1
1
1
1
1
1
0.99999999
0.99999998
0.99999995
0.99999986
0.99999962
0.99999895
0.99999723
0.99999295
0.99998266
0.99995894
0.99990627
0.99979377
0.99956238
0.99910386
0.99822807
0.99661473
0.99374704
0.98882676
0.98067547
0.96763431
0.94748408
0.91741847
0.87411136
0.81392095
0.7332647
0.62917482
0.50000368
0.37186306
0.2699886
0.19164022
0.13316092
0.090685616
0.060596397
0.039768654
0.025657922
0.016287683
0.010181163
0.0062712213
0.0038090946
0.0022828154
0.0013507989
0.0007894204
0.00045627441
0.00026019965
0.00014787854
8.1154468e-05
4.7820353e-05
2.0959336e-05
1
1
1
1
1
1
1
1
1
1
1
1
1
0.99999999
0.99999998
0.99999994
0.99999982
0.99999951
0.99999869
0.99999661
0.99999151
0.9999795
0.99995227
0.99989282
0.99976774
0.99951407
0.99901792
0.99808148
0.99637514
0.99337214
0.9882659
0.979875
0.96654787
0.94608868
0.9157356
0.87223034
0.81201926
0.73161742
0.6281445
0.50000255
0.37285899
0.27153854
0.19339328
0.13487331
0.092213813
0.06187439
0.040785022
0.026433542
0.016859198
0.010589581
0.0065553535
0.0040018734
0.0024109856
0.0014338359
0.00084307447
0.00048872801
0.0002824613
0.00015729362
9.4306963e-05
4.198247e-05
1
1
1
1
1
1
1
1
1
1
1
1
1
1
0.99999999
0.99999997
0.99999992
0.99999977
0.99999938
0.99999838
0.99999588
0.99998986
0.99997595
0.99994493
0.99987822
0.99973988
0.99946306
0.99892824
0.99793018
0.9961303
0.99299245
0.98770247
0.97907667
0.96547131
0.94471381
0.91408566
0.8703939
0.8101692
0.73001934
0.6271471
0.50000117
0.37382355
0.27304339
0.19510134
0.1365473
0.093713905
0.063134123
0.041791267
0.027205078
0.017430435
0.011000006
0.0068421174
0.0041979471
0.0025411495
0.0015203162