/*--------------------------------*- C++ -*----------------------------------*\
  =========                 |
  \\      /  F ield         | OpenFOAM: The Open Source CFD Toolbox
   \\    /   O peration     | Website:  https://openfoam.org
    \\  /    A nd           | Version:  9
     \\/     M anipulation  |
\*---------------------------------------------------------------------------*/
FoamFile
{
    format      ascii;
    class       volScalarField;
    location    "3";
    object      T;
}
// * * * * * * * * * * * * * * * * * * * * * * * * * * * * * * * * * * * * * //

dimensions      [0 0 0 0 0 0 0];

internalField   nonuniform List<scalar> 
3600
(
0.50012594
0.13627468
0.045183798
0.016332957
0.0058524757
0.0024258413
0.0010186159
0.00042690314
0.00017856813
7.3867712e-05
2.9027164e-05
1.1518929e-05
4.6734265e-06
1.9090261e-06
7.8331565e-07
3.2272118e-07
1.3245603e-07
5.4585955e-08
2.2791687e-08
9.5173429e-09
4.1450091e-09
1.7849094e-09
7.7412713e-10
3.3934176e-10
1.5049014e-10
6.7632321e-11
2.9611155e-11
1.2884953e-11
5.5775066e-12
2.4176135e-12
1.0568447e-12
4.6625645e-13
2.0722076e-13
9.2429226e-14
4.1005781e-14
1.7928838e-14
8.0002276e-15
3.5241038e-15
1.5513844e-15
6.8937081e-16
3.0858421e-16
1.37935e-16
4.0845371e-17
8.7211001e-18
1.8399079e-18
3.8904926e-19
8.3136242e-20
1.8016037e-20
3.9630345e-21
8.8482138e-22
2.0033129e-22
4.5966207e-23
1.0693985e-23
2.5272527e-24
6.0836994e-25
1.4956148e-25
3.7587382e-26
9.6311413e-27
2.5369975e-27
5.5823195e-28
0.86348263
0.50011636
0.19706274
0.074395998
0.02918407
0.010868396
0.004000332
0.0015539292
0.0006340814
0.00026530119
0.00012358103
5.9194035e-05
2.6296994e-05
1.1360689e-05
4.8787875e-06
2.0978604e-06
9.0285223e-07
3.8887657e-07
1.6664526e-07
6.3980956e-08
2.6097151e-08
1.123799e-08
4.9179683e-09
2.1654608e-09
9.3411124e-10
4.5921724e-10
2.1208034e-10
9.490219e-11
4.2037653e-11
1.8581972e-11
8.2198734e-12
3.6420826e-12
1.6161853e-12
7.1667121e-13
3.114382e-13
1.2373171e-13
5.2056103e-14
2.2868421e-14
1.0170271e-14
4.535904e-15
2.0249107e-15
8.8962324e-16
4.3972007e-16
1.5637586e-16
5.3247705e-17
1.7473755e-17
5.584647e-18
1.7548104e-18
5.4518798e-19
1.6805279e-19
5.1520542e-20
1.5725929e-20
4.7789283e-21
1.444936e-21
4.3436881e-22
1.2977955e-22
3.8555276e-23
1.1382316e-23
3.403602e-24
8.2888658e-25
0.95465863
0.80310207
0.50002013
0.22824694
0.097383308
0.040887734
0.016751679
0.0070223313
0.0029528178
0.0012698133
0.00050297209
0.00019633106
8.1974639e-05
3.5310119e-05
1.5348308e-05
6.6711859e-06
2.8958109e-06
1.2565146e-06
5.3406207e-07
2.6652255e-07
1.2324047e-07
5.4556026e-08
2.3936282e-08
1.0487383e-08
4.543474e-09
1.7431606e-09
7.2569763e-10
3.1777996e-10
1.408414e-10
6.2475112e-11
2.7712438e-11
1.2299847e-11
5.4629996e-12
2.4249934e-12
1.0532067e-12
5.3127382e-13
2.4917452e-13
1.1208461e-13
4.9952446e-14
2.2268961e-14
9.9348415e-15
4.4129468e-15
1.8241151e-15
7.3168221e-16
3.0278317e-16
1.0447584e-16
3.6387528e-17
1.2590526e-17
4.3296061e-18
1.4779576e-18
5.0022214e-19
1.6791021e-19
5.5952314e-20
1.8525288e-20
6.09842e-21
1.9965129e-21
6.4999586e-22
2.098624e-22
6.8676597e-23
1.8007852e-23
0.98366561
0.92544226
0.77180166
0.49992808
0.24913701
0.11598865
0.051594807
0.022151558
0.0094074031
0.003903845
0.0017191892
0.0007646599
0.00033702316
0.00014947522
6.6714332e-05
2.9237593e-05
1.2701157e-05
5.5138752e-06
2.4081094e-06
9.0577008e-07
3.6721016e-07
1.5919403e-07
7.0214744e-08
3.1056369e-08
1.3428566e-08
6.8316992e-09
3.1910092e-09
1.4302007e-09
6.3473171e-10
2.8154466e-10
1.2499571e-10
5.5541454e-11
2.4692017e-11
1.0961072e-11
4.8644984e-12
1.8889028e-12
7.7543768e-13
3.3950641e-13
1.5151648e-13
6.7762274e-14
3.0263406e-14
1.344396e-14
6.1494852e-15
3.0918724e-15
1.4327563e-15
6.2274875e-16
2.4176266e-16
9.1669785e-17
3.3667154e-17
1.2096563e-17
4.2843688e-18
1.4990127e-18
5.1863594e-19
1.7763634e-19
6.0277688e-20
2.0286965e-20
6.7859768e-21
2.2541272e-21
7.6321321e-22
2.0684693e-22
0.99395849
0.97143569
0.9022714
0.75108771
0.49980751
0.26437295
0.13109817
0.061873263
0.028183778
0.012599717
0.0054762232
0.0023663318
0.0010129319
0.00042736877
0.00017772947
7.5203925e-05
3.2790565e-05
1.4418823e-05
6.2578559e-06
3.1710211e-06
1.4952964e-06
6.70325e-07
2.9624874e-07
1.3055097e-07
5.7821131e-08
2.2073521e-08
9.0207388e-09
3.9411726e-09
1.7543042e-09
7.8201253e-10
3.4839524e-10
1.5521765e-10
6.9162411e-11
3.0768118e-11
1.3542724e-11
6.5976235e-12
3.1798103e-12
1.4501033e-12
6.497717e-13
2.904523e-13
1.2982229e-13
5.7804687e-14
2.5614604e-14
9.9344815e-15
4.1398996e-15
1.8238713e-15
8.0079682e-16
3.4552528e-16
1.3275438e-16
5.1074386e-17
1.940766e-17
7.3115619e-18
2.7278802e-18
1.0068157e-18
3.6801365e-19
1.3332931e-19
4.7880496e-20
1.6973025e-20
6.1089595e-21
1.7347275e-21
0.99771725
0.98839508
0.95972327
0.88391848
0.73587288
0.50004199
0.27628311
0.14336325
0.070887537
0.033726373
0.015626965
0.0070848858
0.0031784899
0.0014184201
0.00063078012
0.00027969766
0.00012340515
5.4573666e-05
2.4346475e-05
9.7470268e-06
3.992632e-06
1.726027e-06
7.6272582e-07
3.3902177e-07
1.4834022e-07
7.4338524e-08
3.5582457e-08
1.6146412e-08
7.2044651e-09
3.2071096e-09
1.4291624e-09
6.3757367e-10
2.8450005e-10
1.2685743e-10
5.6353929e-11
2.3683549e-11
9.3141588e-12
3.9535251e-12
1.7512862e-12
7.8419953e-13
3.5138596e-13
1.5703661e-13
6.9115006e-14
3.4852048e-14
1.6713024e-14
7.6326434e-15
3.4162472e-15
1.5201976e-15
6.5432378e-16
2.6737574e-16
1.0750032e-16
4.1789602e-17
1.5891573e-17
5.955253e-18
2.2002495e-18
8.0281287e-19
2.906312e-19
1.0438171e-19
3.8444328e-20
1.1207579e-20
0.99909908
0.99522923
0.98354208
0.9481683
0.86913232
0.72387239
0.50017548
0.28602237
0.15414407
0.07922624
0.0391666
0.018778818
0.0087829432
0.0040299678
0.0018216668
0.00081437247
0.00036180153
0.00015968762
6.9938885e-05
3.1871751e-05
1.4444864e-05
6.4827538e-06
2.9166548e-06
1.3194712e-06
5.9381859e-07
2.4044816e-07
9.6373481e-08
4.1395555e-08
1.8377215e-08
8.2193119e-09
3.6821522e-09
1.6488545e-09
7.3744078e-10
3.2902196e-10
1.4644092e-10
6.5700416e-11
3.3252231e-11
1.5600356e-11
7.0595971e-12
3.1679398e-12
1.4199349e-12
6.3539818e-13
2.8415262e-13
1.1651146e-13
4.6660488e-14
2.0146372e-14
8.9933151e-15
4.0363896e-15
1.8093823e-15
7.9802834e-16
3.4723136e-16
1.4046333e-16
5.6752835e-17
2.2606504e-17
8.9595387e-18
3.5328905e-18
1.381436e-18
5.3095993e-19
2.0739942e-19
6.298808e-20
0.99963055
0.99796636
0.99353378
0.97717519
0.93826022
0.85651184
0.71424764
0.50018167
0.29407724
0.16345655
0.086745366
0.044301354
0.021920884
0.010570456
0.0049907389
0.0023154435
0.0010592001
0.00048004995
0.00021582379
9.5881117e-05
4.24588e-05
1.867184e-05
8.137113e-06
3.5111353e-06
1.5256779e-06
7.1320458e-07
3.3909607e-07
1.5816501e-07
7.2106287e-08
3.2480641e-08
1.458277e-08
6.5315302e-09
2.9201337e-09
1.3030605e-09
5.7946911e-10
2.5422745e-10
9.9065716e-11
4.0718582e-11
1.7916518e-11
8.0540423e-12
3.6254115e-12
1.6264149e-12
7.2587182e-13
3.3769336e-13
1.696347e-13
7.9227041e-14
3.5899966e-14
1.6158407e-14
7.2762072e-15
3.2624e-15
1.4592341e-15
6.302537e-16
2.6448242e-16
1.0944465e-16
4.3495279e-17
1.6811962e-17
6.4098061e-18
2.4264954e-18
9.5224094e-19
2.9446092e-19
0.99984689
0.99913675
0.9974458
0.99017843
0.97183848
0.92890166
0.84593437
0.70603447
0.50013541
0.30103127
0.17173305
0.093663262
0.049181465
0.025010883
0.012380499
0.005989908
0.0028432597
0.0013279267
0.00061215324
0.00027951127
0.00012657387
5.7111464e-05
2.5710651e-05
1.1582409e-05
5.2218628e-06
2.2777386e-06
9.8236557e-07
4.1815737e-07
1.7950185e-07
7.8190403e-08
3.4818298e-08
1.5613421e-08
7.0123324e-09
3.1480974e-09
1.4112272e-09
6.2419459e-10
3.1560054e-10
1.5225942e-10
6.9821373e-11
3.1560222e-11
1.4190319e-11
6.376759e-12
2.8519412e-12
1.2533848e-12
4.8939857e-13
2.0387262e-13
9.037132e-14
4.0792515e-14
1.8467091e-14
8.3445098e-15
3.7602896e-15
1.6897509e-15
7.4713622e-16
3.2527157e-16
1.3498406e-16
5.6730307e-17
2.3976246e-17
9.9349193e-18
4.1687854e-18
1.3384741e-18
0.99993667
0.99963844
0.99894202
0.9958144
0.98748738
0.96608487
0.92077102
0.83653578
0.69910706
0.50008341
0.3070395
0.17911962
0.10004077
0.053830415
0.028054464
0.014224151
0.0070431083
0.0034171799
0.0016294054
0.00076534181
0.00035504893
0.00016297087
7.416104e-05
3.3501435e-05
1.5041832e-05
6.7727728e-06
3.0464383e-06
1.3897829e-06
6.2966503e-07
2.8277686e-07
1.270576e-07
5.7406958e-08
2.6019889e-08
1.1862845e-08
5.4041522e-09
2.4142418e-09
9.7921543e-10
3.9827572e-10
1.7240214e-10
7.7390728e-11
3.5054366e-11
1.5850146e-11
7.1286062e-12
3.1414595e-12
1.6009288e-12
7.6752381e-13
3.5149131e-13
1.5914145e-13
7.2059951e-14
3.2651825e-14
1.4778795e-14
6.6754241e-15
2.9934656e-15
1.333049e-15
5.7481696e-16
2.3865294e-16
9.3812078e-17
3.6537883e-17
1.5097359e-17
4.9274826e-18
0.99997383
0.99984878
0.99954988
0.99819416
0.99452716
0.98427795
0.96079071
0.91321635
0.82831554
0.69304426
0.50005571
0.31234902
0.18578876
0.10594656
0.058250844
0.031026723
0.016075103
0.0081296497
0.0040257003
0.0019571552
0.00093641451
0.00044193228
0.00020614641
9.5208653e-05
4.3594493e-05
1.9823184e-05
8.9541467e-06
4.0213133e-06
1.8056507e-06
8.0880962e-07
3.600719e-07
1.5934589e-07
7.0262073e-08
3.0715931e-08
1.3398299e-08
6.0129505e-09
2.8685013e-09
1.3869296e-09
6.5046737e-10
2.9854529e-10
1.3635363e-10
6.1870987e-11
2.7782105e-11
1.2212588e-11
4.8853295e-12
1.9802374e-12
8.6731242e-13
3.9326462e-13
1.7938373e-13
8.1691369e-14
3.7086408e-14
1.6781909e-14
7.5536824e-15
3.3749016e-15
1.4998681e-15
6.4740891e-16
3.0887279e-16
1.3926398e-16
6.1750513e-17
2.0611974e-17
0.99998916
0.99993708
0.99980755
0.99922315
0.99763002
0.99287645
0.98117343
0.95565502
0.90633094
0.82091378
0.68770863
0.50002518
0.31708368
0.1918619
0.11144912
0.06246849
0.033933246
0.017930553
0.0092462685
0.0046662463
0.0023104197
0.0011248968
0.00053966087
0.00025557074
0.00011968279
5.5523727e-05
2.5549935e-05
1.1677203e-05
5.3099182e-06
2.4069188e-06
1.0888648e-06
4.9214816e-07
2.2198413e-07
1.0096636e-07
4.5961632e-08
2.0580354e-08
8.9560333e-09
3.8278932e-09
1.6365266e-09
7.1421131e-10
3.173071e-10
1.4292342e-10
6.4412677e-11
2.9024058e-11
1.4466029e-11
7.0854895e-12
3.3141706e-12
1.527246e-12
6.9869567e-13
3.1824099e-13
1.4443837e-13
6.5332196e-14
2.9431443e-14
1.3182259e-14
5.8622751e-15
2.5823662e-15
1.0206463e-15
4.0184378e-16
1.7649213e-16
6.088992e-17
0.99999549
0.9999762
0.99990455
0.99970146
0.99894148
0.99683684
0.99118093
0.97805644
0.95079752
0.89996886
0.81423802
0.68294452
0.50000008
0.32134604
0.1974276
0.11659165
0.066493217
0.036768139
0.019780812
0.010384655
0.0053340565
0.0026869481
0.0013301861
0.00064840434
0.0003117538
0.00014808466
6.9601025e-05
3.2406309e-05
1.4971564e-05
6.8723452e-06
3.1371804e-06
1.4255046e-06
6.4522522e-07
2.9083748e-07
1.3085833e-07
5.8890161e-08
2.6578795e-08
1.2138984e-08
5.5761247e-09
2.5334585e-09
1.1476196e-09
5.2042507e-10
2.3596354e-10
1.0610676e-10
4.4269634e-11
1.8372728e-11
7.9428653e-12
3.5663591e-12
1.6251094e-12
7.4355045e-13
3.4016435e-13
1.5528089e-13
7.0596278e-14
3.1871404e-14
1.4251772e-14
6.2359525e-15
3.0413112e-15
1.4729669e-15
6.9508535e-16
2.462087e-16
0.99999811
0.99999036
0.99995667
0.99987737
0.99953288
0.99860886
0.99595139
0.98942831
0.97497864
0.9461781
0.89407102
0.80816164
0.67865488
0.49997977
0.3252192
0.20256355
0.12141966
0.070343106
0.03953283
0.02162129
0.011539917
0.0060254531
0.0030845795
0.0015512494
0.00076776287
0.00037458689
0.00018044209
8.593612e-05
4.0518198e-05
1.8938829e-05
8.7866143e-06
4.050697e-06
1.8572369e-06
8.4746356e-07
3.8518228e-07
1.7449886e-07
7.8796823e-08
3.5471659e-08
1.5930564e-08
7.1417921e-09
3.1883719e-09
1.4179464e-09
6.3005225e-10
2.8306603e-10
1.3177512e-10
6.2080892e-11
2.8774475e-11
1.3367244e-11
6.1627563e-12
2.8399782e-12
1.3063154e-12
5.9897976e-13
2.7332465e-13
1.2380188e-13
5.5357832e-14
2.4197537e-14
9.8536577e-15
3.9068277e-15
1.7515546e-15
6.2942665e-16
0.99999921
0.99999591
0.9999811
0.99994744
0.99979579
0.99938977
0.99817001
0.99501649
0.98762115
0.97195991
0.94177006
0.88857922
0.80258791
0.67476422
0.49996664
0.32876233
0.20732506
0.12596591
0.074029392
0.042226776
0.023447376
0.012707386
0.0067371838
0.0035015483
0.0017873622
0.00089758388
0.00044415841
0.00021688313
0.00010464588
4.9955919e-05
2.362373e-05
1.1078725e-05
5.1577362e-06
2.3855044e-06
1.0970963e-06
5.0222916e-07
2.2900068e-07
1.0407184e-07
4.7216024e-08
2.141294e-08
9.7042228e-09
4.3925487e-09
1.9877254e-09
8.9377366e-10
3.9713139e-10
1.7494155e-10
7.6888934e-11
3.334815e-11
1.4665957e-11
6.5420886e-12
2.9463919e-12
1.3350305e-12
6.0609514e-13
2.7440183e-13
1.236434e-13
5.5844678e-14
2.7262461e-14
1.3385351e-14
6.6267992e-15
2.4523811e-15
0.99999967
0.99999824
0.99999182
0.99997712
0.99990957
0.99973665
0.99917707
0.99769398
0.9940154
0.98579308
0.96899644
0.93756408
0.88343718
0.79744693
0.67120802
0.49996032
0.33202447
0.21176114
0.13026026
0.07756405
0.044851221
0.025255858
0.013883223
0.0074663364
0.0039360934
0.0020376711
0.0010375789
0.00052044585
0.00025750934
0.00012584356
6.0815649e-05
2.9096082e-05
1.3795643e-05
6.4883371e-06
3.0296249e-06
1.4056517e-06
6.4853324e-07
2.9772291e-07
1.3610395e-07
6.2010431e-08
2.8172717e-08
1.27663e-08
5.7700325e-09
2.6053768e-09
1.1783221e-09
5.3380396e-10
2.4302579e-10
1.1183947e-10
5.1000497e-11
2.3158966e-11
1.0525715e-11
4.793656e-12
2.1863179e-12
9.9775783e-13
4.5314968e-13
2.0269601e-13
8.5851654e-14
3.510163e-14
1.5785354e-14
5.6634615e-15
0.99999986
0.99999925
0.99999644
0.99999008
0.99995951
0.9998876
0.99963197
0.99894788
0.99716202
0.99297159
0.98394596
0.96609753
0.93354055
0.87860771
0.79267813
0.66793954
0.49995943
0.33504253
0.2159092
0.13432639
0.080957185
0.047407638
0.02704444
0.015064407
0.008210507
0.0043867281
0.0023014389
0.0011874584
0.00060341095
0.00030237905
0.00014961058
7.3170548e-05
3.5410375e-05
1.697314e-05
8.065314e-06
3.8025882e-06
1.7802824e-06
8.2824298e-07
3.8318683e-07
1.7643724e-07
8.0907316e-08
3.6966518e-08
1.6834439e-08
7.6450686e-09
3.4635263e-09
1.5652972e-09
7.0628048e-10
3.1806561e-10
1.4322739e-10
6.4368978e-11
2.885165e-11
1.2900908e-11
5.7566849e-12
2.5620867e-12
1.1441335e-12
5.2011022e-13
2.4365443e-13
1.1613867e-13
5.624888e-14
2.0958364e-14
0.99999994
0.99999965
0.99999863
0.99999517
0.99998354
0.99994925
0.99983831
0.99952399
0.99867599
0.99659314
0.99188644
0.98209426
0.96326279
0.929689
0.8740557
0.78823649
0.66491949
0.49996288
0.33784721
0.21980115
0.1381854
0.084218461
0.049898096
0.028811599
0.016248491
0.0089675977
0.0048520795
0.0025779194
0.001346914
0.00069298747
0.00035153287
0.00017601963
8.7091091e-05
4.2621836e-05
2.0650641e-05
9.9140579e-06
4.7199925e-06
2.2301329e-06
1.0464814e-06
4.8803855e-07
2.2635628e-07
1.0447312e-07
4.8009036e-08
2.197904e-08
1.0030475e-08
4.5656135e-09
2.073333e-09
9.4057339e-10
4.2683053e-10
1.9369212e-10
8.7875729e-11
3.984946e-11
1.8082137e-11
8.2231705e-12
3.7315865e-12
1.6720567e-12
7.423807e-13
3.1908703e-13
1.4755128e-13
5.1831714e-14
0.99999998
0.99999984
0.99999946
0.99999771
0.99999348
0.99997646
0.99992977
0.99978575
0.99939056
0.9983769
0.99598525
0.99077118
0.98024312
0.96049547
0.92599697
0.86975472
0.78408366
0.66211716
0.49996926
0.34046297
0.22346358
0.14185575
0.087357029
0.052325129
0.030556497
0.017433557
0.0097358187
0.005330882
0.0028663825
0.0015156086
0.00078907078
0.00040498054
0.00020512349
0.00010263556
5.07794e-05
2.4863609e-05
1.20583e-05
5.79682e-06
2.764342e-06
1.3085657e-06
6.1530652e-07
2.8757531e-07
1.3366913e-07
6.1826648e-08
2.8472822e-08
1.3063283e-08
5.9736526e-09
2.7237346e-09
1.2391979e-09
5.6289505e-10
2.5534155e-10
1.1567992e-10
5.232583e-11
2.3634851e-11
1.066864e-11
4.8170624e-12
2.1816649e-12
9.8897324e-13
4.6610441e-13
1.7233099e-13
0.99999999
0.99999993
0.99999977
0.99999897
0.99999723
0.99998932
0.99996966
0.99990383
0.99972245
0.99923785
0.99804942
0.99534455
0.98963143
0.97839947
0.95779587
0.92245486
0.86568126
0.78018848
0.65950646
0.49997716
0.34291056
0.22691974
0.14535409
0.090381521
0.054691472
0.03227867
0.018617996
0.010513544
0.0058219299
0.0031660982
0.0016931789
0.00089152724
0.0004627099
0.00023696072
0.0001198545
5.9928114e-05
2.9646187e-05
1.4521483e-05
7.0482028e-06
3.3921512e-06
1.619911e-06
7.680722e-07
3.6180137e-07
1.6941323e-07
7.8901022e-08
3.6570272e-08
1.6877727e-08
7.7598906e-09
3.5562602e-09
1.6254309e-09
7.4126762e-10
3.3740072e-10
1.5329801e-10
6.9530951e-11
3.1491816e-11
1.4239822e-11
6.4442313e-12
2.8822032e-12
1.3573221e-12
4.885929e-13
1
0.99999997
0.9999999
0.99999955
0.99999878
0.99999516
0.99998705
0.99995672
0.99987471
0.99964643
0.99906718
0.99769559
0.99467551
0.98847322
0.97656837
0.95516418
0.91905334
0.8618152
0.77652402
0.65706539
0.49998533
0.34520788
0.23019003
0.14869539
0.093299966
0.05699984
0.033977851
0.019800388
0.011299253
0.0063240528
0.0034763271
0.0018792343
0.0010001958
0.00052468694
0.00027155486
0.00013878935
7.0108065e-05
3.503011e-05
1.7326221e-05
8.4891289e-06
4.1229809e-06
1.986215e-06
9.4966988e-07
4.5092477e-07
2.1274891e-07
9.979472e-08
4.6565366e-08
2.1624961e-08
1.0000042e-08
4.6070482e-09
2.115562e-09
9.6869631e-10
4.4242883e-10
2.0159208e-10
9.1677608e-11
4.1608175e-11
1.8897333e-11
8.4884035e-12
4.0066446e-12
1.4550941e-12
1
0.99999999
0.99999996
0.9999998
0.99999946
0.99999782
0.99999448
0.99998046
0.99994376
0.99983757
0.99955992
0.99887816
0.99731819
0.99398186
0.98730184
0.97475379
0.95259988
0.91578368
0.85813858
0.77306689
0.65477501
0.4999929
0.34737055
0.23329237
0.15189288
0.096119538
0.059252695
0.035653798
0.0209794
0.012091496
0.0068361116
0.0037963296
0.0020733688
0.0011148961
0.00059086096
0.0003089176
0.00015947401
8.135505e-05
4.1045064e-05
2.0494305e-05
1.0134389e-05
4.9663224e-06
2.4133067e-06
1.1635523e-06
5.5693109e-07
2.6478902e-07
1.2511725e-07
5.8786817e-08
2.7479284e-08
1.2785113e-08
5.9235413e-09
2.7341622e-09
1.2577734e-09
5.7683052e-10
2.6384906e-10
1.2034963e-10
5.4901959e-11
2.4739834e-11
1.1711853e-11
4.2553984e-12
1
0.99999999
0.99999998
0.99999991
0.99999976
0.99999903
0.99999761
0.99999127
0.99997481
0.99992596
0.99979471
0.99946173
0.99867228
0.99691897
0.99326735
0.98612143
0.97295882
0.9501017
0.91263761
0.85463525
0.76979669
0.65261908
0.49999938
0.34941217
0.2362423
0.15495811
0.098846508
0.061452173
0.037306234
0.02215377
0.012888897
0.007357009
0.0041253787
0.0022751711
0.0012354353
0.00066116843
0.0003490504
0.00018193542
9.3700854e-05
4.771874e-05
2.4046729e-05
1.1998592e-05
5.9317474e-06
2.9071754e-06
1.4133297e-06
6.8192798e-07
3.2673009e-07
1.5553249e-07
7.3595559e-08
3.4632948e-08
1.6215704e-08
7.5575539e-09
3.5075736e-09
1.6216873e-09
7.4726042e-10
3.4311591e-10
1.5746803e-10
7.1329066e-11
3.3930327e-11
1.2376301e-11
1
1
0.99999999
0.99999996
0.99999989
0.99999957
0.99999894
0.99999611
0.99998877
0.99996644
0.99990515
0.99974496
0.99935262
0.99845019
0.99650018
0.99253506
0.98493562
0.9711856
0.94766795
0.90960716
0.8512907
0.76669551
0.65058367
0.50000451
0.35134441
0.23905315
0.15790098
0.10148629
0.063600097
0.038934863
0.023322322
0.013690173
0.0078857103
0.0044627755
0.0024842353
0.0013616148
0.00073553686
0.00039194645
0.0002061946
0.00010717365
5.5076935e-05
2.8003651e-05
1.4096094e-05
7.0288486e-06
3.4739286e-06
1.7027417e-06
8.2813189e-07
3.998502e-07
1.9176027e-07
9.1388493e-08
4.3300807e-08
2.040624e-08
9.5692373e-09
4.466849e-09
2.0766068e-09
9.6127403e-10
4.4447237e-10
2.0265219e-10
9.7024128e-11
3.5566066e-11
1
1
1
0.99999998
0.99999995
0.99999981
0.99999953
0.99999825
0.99999503
0.99998483
0.99995654
0.99988046
0.99968858
0.99923264
0.99821295
0.99606363
0.99178781
0.98374728
0.96943561
0.94529647
0.90668482
0.8480919
0.76374774
0.64865686
0.50000817
0.35317724
0.24173634
0.16073007
0.10404358
0.065698078
0.040539436
0.024484011
0.01449416
0.0084212593
0.0048078614
0.0027001687
0.0014932353
0.00081388749
0.00043759234
0.0002322675
0.00012179839
6.3143669e-05
3.2384424e-05
1.6440999e-05
8.2672302e-06
4.1197819e-06
2.0356516e-06
9.9786491e-07
4.8550644e-07
2.3457451e-07
1.1259752e-07
5.3719244e-08
2.5484153e-08
1.202579e-08
5.6478946e-09
2.6392846e-09
1.2312093e-09
5.6577905e-10
2.7306342e-10
1.0073821e-10
1
1
1
0.99999999
0.99999998
0.99999992
0.99999979
0.99999921
0.99999782
0.99999315
0.99998023
0.9999445
0.99985198
0.9996254
0.99910217
0.99796145
0.9956111
0.99102801
0.98255881
0.96770978
0.94298499
0.90386361
0.84502727
0.7609398
0.64682842
0.50001036
0.35491924
0.24430175
0.16345284
0.1065226
0.067747626
0.042119803
0.025637946
0.015299829
0.0089627884
0.0051600238
0.0029225964
0.0016300996
0.00089613753
0.00048596937
0.00026016574
0.00013759713
7.1941328e-05
3.7207629e-05
1.9047146e-05
9.6564847e-06
4.8510421e-06
2.4160364e-06
1.1935508e-06
5.8513393e-07
2.8480415e-07
1.3769081e-07
6.6148206e-08
3.1589951e-08
1.5004795e-08
7.0866218e-09
3.3393679e-09
1.5484433e-09
7.5441123e-10
2.8045457e-10
1
1
1
1
0.99999999
0.99999996
0.99999991
0.99999965
0.99999904
0.99999693
0.99999105
0.99997444
0.99993037
0.99981944
0.99955549
0.99896152
0.99769661
0.99514417
0.99025775
0.98137214
0.96600866
0.94073113
0.90113716
0.84208659
0.75825995
0.64508966
0.50001119
0.35657788
0.24675804
0.16607602
0.10892723
0.069750246
0.043675958
0.026783408
0.016106287
0.009509519
0.0055186979
0.0031511633
0.0017720148
0.00098220192
0.00053705484
0.00028989736
0.00015458943
8.1490828e-05
4.2491128e-05
2.192811e-05
1.1206181e-05
5.6740939e-06
2.8479775e-06
1.4177091e-06
7.0024322e-07
3.4333132e-07
1.6717389e-07
8.0867858e-08
3.8884365e-08
1.8578869e-08
8.852793e-09
4.1463672e-09
2.0418021e-09
7.6574984e-10
1
1
1
1
1
0.99999999
0.99999995
0.99999986
0.99999955
0.99999864
0.99999596
0.99998831
0.99996755
0.99991395
0.99978282
0.99947886
0.99881107
0.99741928
0.99466428
0.98947886
0.98018883
0.96433251
0.93853262
0.89849969
0.83926085
0.75569796
0.64343307
0.50001091
0.35815978
0.24911298
0.16860572
0.11126114
0.071707479
0.04520804
0.027919834
0.016912772
0.010060756
0.0058833647
0.0033855347
0.0019187942
0.0010719948
0.00059082315
0.00032146751
0.00017279269
9.181177e-05
4.8252107e-05
2.5097202e-05
1.2925849e-05
6.595384e-06
3.335649e-06
1.6729488e-06
8.3241491e-07
4.1109414e-07
2.0158003e-07
9.8198721e-08
4.7505161e-08
2.2909957e-08
1.0847734e-08
5.4048223e-09
2.0469494e-09
1
1
1
1
1
0.99999999
0.99999998
0.99999994
0.99999979
0.9999994
0.99999817
0.99999469
0.99998499
0.9999594
0.99989515
0.99974203
0.99939561
0.99865121
0.99713031
0.99417274
0.98869293
0.97901021
0.96268144
0.93638726
0.89594603
0.83654209
0.75324487
0.64185216
0.50000982
0.35967088
0.25137366
0.17104764
0.11352785
0.073620904
0.046716317
0.029046806
0.01771863
0.01061588
0.0062535482
0.003625396
0.0020702578
0.001165431
0.00064724676
0.00035487902
0.00019222249
0.00010292256
5.4507097e-05
2.856745e-05
1.4824952e-05
7.6213974e-06
3.883304e-06
1.9619538e-06
9.8330592e-07
4.8905794e-07
2.4152471e-07
1.183812e-07
5.782474e-08
2.7698988e-08
1.3976486e-08
5.3499714e-09
1
1
1
1
1
1
0.99999999
0.99999997
0.9999999
0.99999974
0.99999918
0.9999976
0.9999931
0.99998101
0.99994992
0.99987387
0.99969702
0.99930585
0.99848231
0.99683047
0.99367076
0.98790135
0.97783734
0.9610554
0.93429297
0.89347139
0.83392312
0.75089269
0.64034114
0.50000821
0.3611166
0.25354656
0.17340708
0.11573073
0.075492122
0.048201152
0.030164016
0.018523306
0.011174338
0.0066288123
0.0038704531
0.002226234
0.0012624268
0.00070629707
0.0003901329
0.00021289279
0.00011484046
6.1271965e-05
3.2351567e-05
1.6912848e-05
8.7586358e-06
4.4952397e-06
2.2875021e-06
1.154571e-06
5.7836412e-07
2.8737841e-07
1.4226753e-07
6.8983545e-08
3.5278182e-08
1.3658734e-08
1
1
1
1
1
1
1
0.99999999
0.99999996
0.99999989
0.99999962
0.99999892
0.99999685
0.99999119
0.99997631
0.99993903
0.99985005
0.9996478
0.99920971
0.99830477
0.9965205
0.9931594
0.98710535
0.97667114
0.95945424
0.93224771
0.89107138
0.83139739
0.74863417
0.63889478
0.50000634
0.36250181
0.25563763
0.17568899
0.11787299
0.077322718
0.049662978
0.031271246
0.019326325
0.011735638
0.0070087593
0.0041204327
0.0023865601
0.001362901
0.00076794483
0.00042722858
0.00023481596
0.00012758157
6.8561849e-05
3.6461871e-05
1.9198755e-05
1.0013537e-05
5.1758621e-06
2.6522594e-06
1.3482637e-06
6.7945997e-07
3.4108855e-07
1.6749627e-07
8.68713e-08
3.4041558e-08
1
1
1
1
1
1
1
0.99999999
0.99999998
0.99999995
0.99999983
0.99999951
0.99999857
0.99999594
0.99998889
0.99997082
0.99992665
0.99982363
0.99959436
0.99910734
0.99811898
0.9962011
0.99263966
0.98630601
0.97551231
0.95787764
0.93024947
0.88874181
0.82895884
0.74646269
0.63750832
0.50000438
0.36383096
0.25765231
0.17789795
0.11995765
0.079114232
0.051102265
0.032368353
0.020127284
0.012299342
0.007393028
0.0043750816
0.0025510827
0.0014667752
0.00083216027
0.00046616383
0.00025800271
0.00014116071
7.6391031e-05
4.091026e-05
2.1691579e-05
1.1392675e-05
5.9291484e-06
3.0598381e-06
1.5645723e-06
7.9679664e-07
3.9641991e-07
2.0863103e-07
8.2790723e-08
1
1
1
1
1
1
1
1
0.99999999
0.99999998
0.99999992
0.99999978
0.99999935
0.99999814
0.99999483
0.99998617
0.9999645
0.99991273
0.99979454
0.99953671
0.99899889
0.99792531
0.99587292
0.99211241
0.98550422
0.97436139
0.95632519
0.92829624
0.88647875
0.82660187
0.74437218
0.63617744
0.50000245
0.36510804
0.25959558
0.18003816
0.12198754
0.080868152
0.052519514
0.033455255
0.020925848
0.012865067
0.0077812919
0.0046341663
0.0027196569
0.001573973
0.00089891272
0.00050693451
0.00028246187
0.00015559118
8.4772948e-05
4.5707812e-05
2.4400478e-05
1.2901387e-05
6.7613914e-06
3.5090346e-06
1.8136709e-06
9.1448832e-07
4.88609e-07
1.9644663e-07
1
1
1
1
1
1
1
1
1
0.99999999
0.99999997
0.9999999
0.99999971
0.99999915
0.99999761
0.9999935
0.99998299
0.9999573
0.99989721
0.99976277
0.99947489
0.9988845
0.9977241
0.99553654
0.99157843
0.98470077
0.97321877
0.95479635
0.92638604
0.88427848
0.82432134
0.74235716
0.63489822
0.50000066
0.36633666
0.26147193
0.18211351
0.12396531
0.082585908
0.053915249
0.034531931
0.021721741
0.013432477
0.0081732559
0.0048974698
0.0028921446
0.0016844191
0.00096816985
0.00054953412
0.00030819993
0.00017088494
9.3719262e-05
5.0866328e-05
2.733142e-05
1.455072e-05
7.666844e-06
4.0230592e-06
2.0563908e-06
1.1159101e-06
4.5475717e-07
1
1
1
1
1
1
1
1
1
1
0.99999998
0.99999996
0.99999987
0.99999961
0.9999989
0.99999696
0.99999192
0.99997932
0.99994916
0.99988003
0.99972827
0.99940892
0.99876435
0.99751571
0.9951925
0.99103842
0.98389631
0.97208471
0.95329055
0.924517
0.88213762
0.82211259
0.74041271
0.63366718
0.49999906
0.36752005
0.26328547
0.18412754
0.12589341
0.084268883
0.05529002
0.035598412
0.022514741
0.014001277
0.0085686507
0.0051647883
0.0030684119
0.0017980375
0.0010398969
0.00059395285
0.00033522165
0.00018705038
0.00010324387
5.6389816e-05
3.0504361e-05
1.6322456e-05
8.6981912e-06
4.5082364e-06
2.4855905e-06
1.0271067e-06
1
1
1
1
1
1
1
1
1
1
0.99999999
0.99999998
0.99999994
0.99999983
0.9999995
0.99999859
0.99999619
0.99999007
0.99997511
0.99994003
0.99986116
0.99969104
0.99933885
0.99863859
0.99730043
0.99484131
0.99049299
0.98309139
0.97095941
0.95180722
0.92268738
0.88005308
0.81997144
0.73853443
0.63248123
0.49999771
0.36866113
0.26503992
0.18608356
0.1277742
0.085918422
0.056644398
0.036654774
0.02330467
0.014571204
0.0089672256
0.0054359262
0.0032483263
0.0019147506
0.0011140548
0.00064017955
0.0003635249
0.00020410244
0.00011334225
6.2316008e-05
3.3869885e-05
1.8335159e-05
9.6377362e-06
5.4005695e-06
2.2636856e-06
1
1
1
1
1
1
1
1
1
1
1
0.99999999
0.99999997
0.99999992
0.99999977
0.99999935
0.99999822
0.99999528
0.99998793
0.99997034
0.99992989
0.99984055
0.99965104
0.99926472
0.99850736
0.99707858
0.99448341
0.9899427
0.98228653
0.96984306
0.95034585
0.92089565
0.87802213
0.8178942
0.73671844
0.63133762
0.49999664
0.36976254
0.2667387
0.18798464
0.12960987
0.087535837
0.057978963
0.03770112
0.024091377
0.015142014
0.0093687415
0.0057106908
0.0034317549
0.0020344747
0.0011906052
0.00068818936
0.00039312509
0.00022201343
0.00012408947
6.8522124e-05
3.7691623e-05
2.0096523e-05
1.144873e-05
4.8693221e-06
1
1
1
1
1
1
1
1
1
1
1
1
0.99999999
0.99999996
0.9999999
0.9999997
0.99999917
0.99999777
0.9999942
0.99998548
0.99996498
0.99991868
0.99981816
0.99960828
0.99918659
0.99837081
0.99685045
0.99411926
0.98938808
0.98148222
0.96873584
0.948906
0.91914045
0.87604233
0.81587758
0.73496125
0.63023385
0.49999586
0.37082672
0.268385
0.18983366
0.13140253
0.089122394
0.059294286
0.038737566
0.024874726
0.015713475
0.0097729614
0.0059888924
0.0036185564
0.0021571342
0.0012694818
0.00073800167
0.00042394035
0.00024093927
0.00013519742
7.5585647e-05
4.088493e-05
2.3685998e-05
1.0225347e-05
1
1
1
1
1
1
1
1
1
1
1
1
0.99999999
0.99999998
0.99999995
0.99999986
0.99999962
0.99999895
0.99999724
0.99999296
0.99998269
0.99995899
0.99990637
0.99979397
0.99956275
0.9991045
0.99822911
0.99661631
0.99374927
0.98882966
0.98067892
0.96763796
0.94748733
0.91742057
0.87411151
0.81391857
0.7332597
0.62916768
0.49999538
0.3718559
0.26998174
0.19163335
0.13315415
0.090679304
0.060590908
0.039764216
0.025654586
0.016285351
0.010179653
0.0062703226
0.0038086131
0.0022825941
0.0013507247
0.00078941919
0.00045630248
0.00026023353
0.00014790879
8.117652e-05
4.783692e-05
2.0967742e-05
1
1
1
1
1
1
1
1
1
1
1
1
1
0.99999999
0.99999998
0.99999994
0.99999982
0.99999951
0.99999869
0.99999661
0.99999152
0.99997953
0.99995233
0.99989294
0.99976795
0.99951445
0.99901854
0.99808242
0.99637648
0.99337389
0.98826796
0.97987713
0.96654965
0.94608954
0.91573493
0.87222767
0.81201446
0.73161085
0.62813702
0.49999518
0.37285218
0.27153164
0.19338625
0.13486651
0.092207709
0.061869325
0.040781146
0.026430809
0.016857435
0.010588557
0.0065548384
0.0040016747
0.002410961
0.0014338911
0.00084315444
0.00048880382
0.00028252314
0.00015733695
9.4338696e-05
4.1998355e-05
1
1
1
1
1
1
1
1
1
1
1
1
1
1
0.99999999
0.99999997
0.99999992
0.99999977
0.99999939
0.99999838
0.99999588
0.99998988
0.99997598
0.99994499
0.99987834
0.99974009
0.9994634
0.99892876
0.99793091
0.99613124
0.99299352
0.98770348
0.97907731
0.96547114
0.94471235
0.91408252
0.87038894
0.81016268
0.73001198
0.62713994
0.49999516
0.37381758
0.27303705
0.19509487
0.1365412
0.093708665
0.063130023
0.041788356
0.027203225
0.017429412
0.01099956