/*--------------------------------*- C++ -*----------------------------------*\
  =========                 |
  \\      /  F ield         | OpenFOAM: The Open Source CFD Toolbox
   \\    /   O peration     | Website:  https://openfoam.org
    \\  /    A nd           | Version:  9
     \\/     M anipulation  |
\*---------------------------------------------------------------------------*/
FoamFile
{
    format      ascii;
    class       volScalarField;
    location    "4";
    object      T;
}
// * * * * * * * * * * * * * * * * * * * * * * * * * * * * * * * * * * * * * //

dimensions      [0 0 0 0 0 0 0];

internalField   nonuniform List<scalar> 
3600
(
0.50004625
0.13638816
0.045202382
0.0163183
0.0059488005
0.0022600733
0.00092127333
0.00039234184
0.0001663578
7.033415e-05
2.9656638e-05
1.2376942e-05
5.0614475e-06
2.0589924e-06
8.3719447e-07
3.406161e-07
1.3910146e-07
5.6307957e-08
2.3030734e-08
9.6021173e-09
4.112026e-09
1.7614458e-09
7.8306812e-10
3.418197e-10
1.4911533e-10
6.5147257e-11
2.8755447e-11
1.282075e-11
5.7088364e-12
2.5025494e-12
1.0895139e-12
4.7367008e-13
2.0630165e-13
9.0601809e-14
4.0150423e-14
1.7919559e-14
8.0249326e-15
3.5701371e-15
1.5622304e-15
6.9741623e-16
3.0740319e-16
1.334759e-16
4.3988021e-17
1.0962582e-17
2.6939602e-18
6.3214482e-19
1.4112026e-19
3.0375825e-20
6.4159772e-21
1.3488398e-21
2.8497324e-22
6.0873459e-23
1.3191044e-23
2.9034829e-24
6.4919699e-25
1.4740177e-25
3.3983989e-26
7.9546284e-27
1.9124317e-27
3.9152176e-28
0.86359145
0.49998863
0.19703591
0.074476629
0.028838941
0.01178766
0.0045862432
0.001705599
0.00067013673
0.00027568209
0.00011674888
5.0246259e-05
2.1496772e-05
1.0346631e-05
4.7631533e-06
2.0919145e-06
9.0434027e-07
3.8912841e-07
1.6740563e-07
7.2330197e-08
3.1202674e-08
1.2236565e-08
4.9837891e-09
2.1473298e-09
9.4224277e-10
4.149262e-10
1.8238745e-10
8.1883941e-11
3.9753137e-11
1.8230181e-11
8.15141e-12
3.6175487e-12
1.6035712e-12
7.1155242e-13
3.1627863e-13
1.4075983e-13
6.2498894e-14
2.7123323e-14
1.0839853e-14
4.5686992e-15
2.009095e-15
8.9283517e-16
3.9405424e-16
1.2684138e-16
4.0322076e-17
1.3252093e-17
4.441511e-18
1.4833886e-18
4.8625344e-19
1.5601944e-19
4.9174051e-20
1.5295152e-20
4.7136099e-21
1.4434658e-21
4.4006874e-22
1.3368967e-22
4.0487275e-23
1.2201219e-23
3.7263867e-24
9.2258127e-25
0.95465632
0.80314841
0.50001383
0.228253
0.097490602
0.040192917
0.016456691
0.0070327482
0.0029766243
0.001268651
0.00055352751
0.00023979723
0.00010317366
3.8995291e-05
1.5532169e-05
6.6229685e-06
2.878769e-06
1.2512033e-06
5.4341691e-07
2.3649492e-07
1.0143572e-07
4.9703853e-08
2.3271534e-08
1.0387447e-08
4.5797608e-09
2.0187135e-09
8.8773844e-10
3.774389e-10
1.4750088e-10
6.2284658e-11
2.7421505e-11
1.2186296e-11
5.4196453e-12
2.4107543e-12
1.0730362e-12
4.7772666e-13
2.1225194e-13
9.241696e-14
4.6511939e-14
2.1867978e-14
9.8576651e-15
4.3900143e-15
1.9939166e-15
8.6303312e-16
3.6510325e-16
1.2711167e-16
4.1712076e-17
1.3512207e-17
4.4395199e-18
1.4789577e-18
4.9542747e-19
1.6583012e-19
5.5274568e-20
1.8318272e-20
6.0336867e-21
1.9757248e-21
6.4361469e-22
2.0819204e-22
6.8417259e-23
1.8035488e-23
0.98376371
0.9251847
0.77192232
0.49994282
0.24897484
0.11622713
0.051808973
0.02226855
0.0094634981
0.0039552386
0.0016056179
0.00065363912
0.0002762968
0.00013503598
6.4158257e-05
2.879477e-05
1.2612306e-05
5.4925238e-06
2.3934906e-06
1.0458988e-06
4.5844131e-07
1.7619477e-07
7.0898486e-08
3.0660439e-08
1.355455e-08
6.0039676e-09
2.6563336e-09
1.1644484e-09
5.901663e-10
2.7551863e-10
1.2375437e-10
5.5077031e-11
2.4500581e-11
1.0908088e-11
4.8597917e-12
2.1649863e-12
9.6190217e-13
4.2735156e-13
1.6732115e-13
6.8573074e-14
2.997892e-14
1.3362926e-14
6.0059981e-15
2.6842376e-15
1.1800428e-15
5.0693784e-16
2.1029749e-16
8.4963912e-17
3.2273256e-17
1.1786138e-17
4.2065684e-18
1.4781272e-18
5.1343319e-19
1.7679525e-19
6.0438753e-20
2.0525093e-20
6.9287813e-21
2.3192552e-21
7.8931401e-22
2.1435499e-22
0.99381003
0.97205378
0.90178831
0.75120993
0.4998303
0.26405731
0.13094654
0.06187607
0.028205193
0.012602877
0.0055834989
0.0024355698
0.0010687023
0.00044312169
0.00018044179
7.5307985e-05
3.2691729e-05
1.4344445e-05
6.3123812e-06
2.7869964e-06
1.214619e-06
6.0305577e-07
2.8717574e-07
1.2950684e-07
5.7450889e-08
2.543507e-08
1.124121e-08
4.9800152e-09
1.9096717e-09
7.8413738e-10
3.4354221e-10
1.5331291e-10
6.8528311e-11
3.0605982e-11
1.36623e-11
6.0947965e-12
2.7117459e-12
1.1959186e-12
5.7598323e-13
2.7969841e-13
1.2803851e-13
5.7425977e-14
2.5709318e-14
1.1526771e-14
5.1362717e-15
2.2770727e-15
8.8220682e-16
3.4792717e-16
1.3123001e-16
5.0193134e-17
1.9072801e-17
7.2015349e-18
2.6942907e-18
9.9651835e-19
3.6441526e-19
1.318724e-19
4.7284467e-20
1.6755257e-20
6.0432037e-21
1.7221617e-21
0.99763644
0.98878906
0.95945013
0.88401329
0.73578928
0.49991651
0.27625314
0.14337665
0.07090061
0.033741591
0.015582183
0.0070506697
0.0031356903
0.0013975172
0.00062374251
0.0002780234
0.00012292274
5.4316701e-05
2.4205053e-05
1.0881121e-05
4.8876474e-06
1.9693012e-06
7.8849726e-07
3.3850941e-07
1.4981768e-07
6.6709181e-08
2.9697002e-08
1.2991513e-08
6.4828977e-09
3.1081591e-09
1.4128512e-09
6.3183009e-10
2.8205111e-10
1.2600698e-10
5.6307981e-11
2.5143472e-11
1.1208802e-11
4.9751119e-12
2.1253283e-12
8.3203048e-13
3.5125829e-13
1.5530018e-13
6.9548217e-14
3.1210947e-14
1.3964575e-14
6.1600467e-15
3.0447282e-15
1.4606154e-15
6.4068974e-16
2.6271045e-16
1.057734e-16
4.1180915e-17
1.5707691e-17
5.9202872e-18
2.2081834e-18
8.155776e-19
2.9873782e-19
1.0814335e-19
3.9910456e-20
1.1607196e-20
0.99908119
0.9954358
0.9833765
0.94828673
0.86905323
0.72385705
0.5000503
0.28596277
0.15410601
0.079190534
0.039171171
0.018789477
0.0087883667
0.0040295513
0.0018188773
0.000812132
0.00036055196
0.00015944748
6.9797201e-05
3.016126e-05
1.3050391e-05
6.0274223e-06
2.8320166e-06
1.2972052e-06
5.9372631e-07
2.6647647e-07
1.1879122e-07
5.2818043e-08
2.1331768e-08
8.4663591e-09
3.6408393e-09
1.6228743e-09
7.2838469e-10
3.2661721e-10
1.4620219e-10
6.532813e-11
2.9121161e-11
1.2982551e-11
5.7107079e-12
2.9141405e-12
1.381151e-12
6.2710923e-13
2.8152479e-13
1.2624805e-13
5.6564984e-14
2.5320039e-14
1.0528561e-14
4.1872167e-15
1.7892962e-15
7.8123504e-16
3.3968502e-16
1.3787685e-16
5.5972817e-17
2.2406404e-17
8.8932778e-18
3.494425e-18
1.3578357e-18
5.1960351e-19
2.0316786e-19
6.1987684e-20
0.9996323
0.99802086
0.99347541
0.97726003
0.93821799
0.85652172
0.71418602
0.50012914
0.29405346
0.16341183
0.08668743
0.044259114
0.021888822
0.010550975
0.0049802252
0.0023100638
0.0010566286
0.0004783934
0.00021567855
9.7028895e-05
4.3465523e-05
1.906986e-05
8.265261e-06
3.5664269e-06
1.5178181e-06
6.5523499e-07
2.8840818e-07
1.2751712e-07
6.1781403e-08
3.0610337e-08
1.4171161e-08
6.407325e-09
2.8806457e-09
1.2913508e-09
5.7775239e-10
2.5791438e-10
1.1497176e-10
5.1181974e-11
2.2872263e-11
8.984301e-12
3.6550299e-12
1.600074e-12
7.1844185e-13
3.2376762e-13
1.4550903e-13
6.5098383e-14
2.9905221e-14
1.5099346e-14
7.0813948e-15
3.1951789e-15
1.4277798e-15
6.1680254e-16
2.5993263e-16
1.083393e-16
4.3692705e-17
1.7274717e-17
6.7561579e-18
2.600325e-18
1.021443e-18
3.1308502e-19
0.99984762
0.9991479
0.99744107
0.99020189
0.97183106
0.92890241
0.8459022
0.70601246
0.50013463
0.30100507
0.17170147
0.093631619
0.049154635
0.024989604
0.012365841
0.0059811994
0.0028383729
0.0013257417
0.00061099327
0.00027854329
0.00012593193
5.6766024e-05
2.557104e-05
1.1496464e-05
5.237743e-06
2.3536991e-06
1.0524441e-06
4.7293217e-07
2.0240081e-07
8.3298637e-08
3.5312437e-08
1.5576009e-08
6.9765442e-09
3.1363257e-09
1.4106112e-09
6.3485364e-10
2.8564501e-10
1.2818174e-10
5.6380164e-11
2.7989345e-11
1.3614651e-11
6.2572485e-12
2.8247418e-12
1.27227e-12
5.7262606e-13
2.563901e-13
1.1337481e-13
4.4380467e-14
1.8400209e-14
8.1197417e-15
3.6508865e-15
1.6455751e-15
7.3142878e-16
3.2157869e-16
1.3456094e-16
5.6234798e-17
2.3167251e-17
9.4255287e-18
3.9545271e-18
1.283439e-18
0.99993679
0.99964036
0.99894293
0.99581955
0.98748978
0.9660874
0.92075953
0.83652233
0.69910492
0.50011784
0.30702983
0.17908709
0.10000462
0.05380042
0.028033292
0.014210993
0.0070355421
0.003413155
0.0016275531
0.00076489717
0.0003550452
0.00016307365
7.4218659e-05
3.3540014e-05
1.5055392e-05
6.7583103e-06
3.0194793e-06
1.3404808e-06
6.0342814e-07
2.7798391e-07
1.2661764e-07
5.7308603e-08
2.5942016e-08
1.1836997e-08
5.4103444e-09
2.4567231e-09
1.1136751e-09
5.0105625e-10
2.2245092e-10
9.0999084e-11
3.6309507e-11
1.556629e-11
6.9947934e-12
3.1734246e-12
1.4351203e-12
6.4491875e-13
2.8408476e-13
1.4298187e-13
6.8996658e-14
3.1690506e-14
1.4346599e-14
6.4882051e-15
2.923152e-15
1.3146779e-15
5.739564e-16
2.4570997e-16
1.0432537e-16
4.2469996e-17
1.7481363e-17
5.551651e-18
0.99997379
0.99984907
0.99955159
0.99819632
0.99453716
0.98429127
0.96079366
0.91321071
0.82830633
0.69305547
0.500105
0.31236428
0.18577881
0.10592636
0.058230904
0.031011725
0.016065411
0.0081242666
0.0040228034
0.0019557513
0.00093587606
0.00044177495
0.00020613001
9.5233151e-05
4.363349e-05
1.9864804e-05
9.0046207e-06
4.064876e-06
1.8223537e-06
8.1280201e-07
3.6130243e-07
1.596695e-07
7.0360273e-08
3.071478e-08
1.3347441e-08
5.8649567e-09
2.5964344e-09
1.165106e-09
5.2054343e-10
2.522749e-10
1.2575282e-10
5.901151e-11
2.7164971e-11
1.2387012e-11
5.6090385e-12
2.5156974e-12
1.1144754e-12
4.506169e-13
1.8100913e-13
7.8564685e-14
3.5528866e-14
1.6190294e-14
7.3544275e-15
3.3259407e-15
1.49956e-15
6.6628473e-16
2.9267263e-16
1.2337056e-16
5.4426165e-17
1.86415e-17
0.99998914
0.99993643
0.99980825
0.99922119
0.99762408
0.99287989
0.98118451
0.95565798
0.90633071
0.8209123
0.68773415
0.50008778
0.31710831
0.19186205
0.11143851
0.062456192
0.033923615
0.017924247
0.0092427865
0.0046647516
0.0023099825
0.0011248951
0.00053978958
0.0002557192
0.00011977798
5.5577593e-05
2.557812e-05
1.1687487e-05
5.3159321e-06
2.4072657e-06
1.0889289e-06
4.9224107e-07
2.2189931e-07
1.0094805e-07
4.594857e-08
2.0755758e-08
9.3600432e-09
4.2235133e-09
1.910054e-09
8.1992508e-10
3.3869021e-10
1.4464288e-10
6.412407e-11
2.8950645e-11
1.3103992e-11
5.9180795e-12
2.6340642e-12
1.2832715e-12
6.3823107e-13
2.9908432e-13
1.3769025e-13
6.2861135e-14
2.8573102e-14
1.2941043e-14
5.8447191e-15
2.6215112e-15
1.173898e-15
5.0902958e-16
2.247576e-16
7.374904e-17
0.9999955
0.9999731
0.99991723
0.99965831
0.99898746
0.99680095
0.99119925
0.97804875
0.95079857
0.89995599
0.81423983
0.68296956
0.50006788
0.3213806
0.19743805
0.11658959
0.06648749
0.036762894
0.019777332
0.010382973
0.0053336127
0.002687108
0.0013305407
0.00064876119
0.00031202134
0.00014826183
6.9706596e-05
3.2471244e-05
1.5003902e-05
6.8857332e-06
3.1417205e-06
1.4268967e-06
6.4554369e-07
2.9082123e-07
1.3096465e-07
5.8894522e-08
2.6370061e-08
1.1755642e-08
5.2450972e-09
2.3871106e-09
1.1148023e-09
5.1377681e-10
2.3490622e-10
1.0782158e-10
4.9485767e-11
2.2527673e-11
1.0112622e-11
4.236034e-12
1.7089819e-12
7.2825935e-13
3.2807829e-13
1.5037165e-13
6.9006855e-14
3.1565823e-14
1.4385361e-14
6.5186887e-15
2.936321e-15
1.3023505e-15
5.8747686e-16
2.0846134e-16
0.99999814
0.99998863
0.99996495
0.99985216
0.99956124
0.99858719
0.99595493
0.98941744
0.97497091
0.94615876
0.89405451
0.80815557
0.67868036
0.50004444
0.32525495
0.20257761
0.12142214
0.070341233
0.039530612
0.021620241
0.011540028
0.0060262053
0.0030854992
0.0015520776
0.0007683789
0.00037498994
0.0001806757
8.6065672e-05
4.0584545e-05
1.8968749e-05
8.7983053e-06
4.0547065e-06
1.8582857e-06
8.4758713e-07
3.8520762e-07
1.7477058e-07
7.9205558e-08
3.5840075e-08
1.6156298e-08
7.240286e-09
3.2174341e-09
1.4258373e-09
6.2962716e-10
2.7602872e-10
1.2080204e-10
5.346999e-11
2.4056611e-11
1.1444779e-11
5.6576222e-12
2.6915374e-12
1.2541662e-12
5.8032272e-13
2.6728596e-13
1.2265712e-13
5.6081669e-14
2.5497735e-14
1.1518939e-14
5.105645e-15
2.3241619e-15
7.8264735e-16
0.99999923
0.99999568
0.99998243
0.99994353
0.99979919
0.99938434
0.99816806
0.99500827
0.9876102
0.97193983
0.9417455
0.88855573
0.80258091
0.67478553
0.50002265
0.32879433
0.20733886
0.12596978
0.074029657
0.042226885
0.023448389
0.012709095
0.0067390545
0.0035032001
0.0017886207
0.00089843639
0.00044467699
0.00021717527
0.00010479704
5.0026639e-05
2.3652941e-05
1.1089177e-05
5.1607902e-06
2.3860401e-06
1.0970145e-06
5.0202803e-07
2.2884728e-07
1.0395087e-07
4.7089138e-08
2.130786e-08
9.6473238e-09
4.3706754e-09
1.9829107e-09
9.053028e-10
4.1368782e-10
1.8770712e-10
8.4637275e-11
3.6968027e-11
1.5648717e-11
6.6999045e-12
2.9426334e-12
1.3195488e-12
6.0011409e-13
2.7365772e-13
1.2473215e-13
5.6883297e-14
2.5929982e-14
1.1618522e-14
5.375848e-15
1.9643889e-15
0.99999968
0.99999825
0.99999198
0.99997681
0.99991001
0.99973351
0.99917657
0.99768764
0.99400654
0.9857764
0.96897386
0.93753748
0.88341618
0.79744142
0.67122715
0.50000426
0.33204904
0.21177159
0.1302638
0.077565854
0.044853558
0.025258975
0.013886547
0.0074693008
0.0039383991
0.0020392723
0.0010385831
0.0005210214
0.00025781223
0.00012598852
6.0877396e-05
2.9118671e-05
1.3802219e-05
6.4894085e-06
3.029181e-06
1.4051054e-06
6.4822145e-07
2.9761211e-07
1.3606795e-07
6.1986824e-08
2.8147781e-08
1.275011e-08
5.7627361e-09
2.5996623e-09
1.1709925e-09
5.2688349e-10
2.3694688e-10
1.0724925e-10
4.9311478e-11
2.2801309e-11
1.0431311e-11
4.7597528e-12
2.1776638e-12
1.0007286e-12
4.6247208e-13
2.1334105e-13
9.8067035e-14
4.4170691e-14
2.0440794e-14
7.0633973e-15
0.99999987
0.99999925
0.99999648
0.99999001
0.99995984
0.99988593
0.9996316
0.99894418
0.99715604
0.99296051
0.98392953
0.96607644
0.93351948
0.87859341
0.79267803
0.66795682
0.49999036
0.33505825
0.21591553
0.13432953
0.080960662
0.047412261
0.027049572
0.015069167
0.0082143401
0.0043894746
0.002303214
0.0011885013
0.00060396955
0.00030264997
0.00014972703
7.3212701e-05
3.5421613e-05
1.6973816e-05
8.0634053e-06
3.8006916e-06
1.7789701e-06
8.2749442e-07
3.8279597e-07
1.7622629e-07
8.0797071e-08
3.6916788e-08
1.6817461e-08
7.6410742e-09
3.4672107e-09
1.5714743e-09
7.1008903e-10
3.2003563e-10
1.4391002e-10
6.4400079e-11
2.8783184e-11
1.2844294e-11
5.7177092e-12
2.5385316e-12
1.1192102e-12
4.9745666e-13
2.2326365e-13
9.9563985e-14
4.7172751e-14
1.7683359e-14
0.99999994
0.99999968
0.99999847
0.99999562
0.99998188
0.99995211
0.99983465
0.99952375
0.99867201
0.99658715
0.99187631
0.98208094
0.96324794
0.92967676
0.87405078
0.78824225
0.66493474
0.49998088
0.33785455
0.21980431
0.13818905
0.084224082
0.049904994
0.028818439
0.016254266
0.0089718875
0.0048549347
0.0025796362
0.001347848
0.00069344326
0.00035172693
0.00017608627
8.7104578e-05
4.2617953e-05
2.0643732e-05
9.9085116e-06
4.7164119e-06
2.2281037e-06
1.0454251e-06
4.8750759e-07
2.260971e-07
1.0435858e-07
4.7965549e-08
2.1963274e-08
1.0023006e-08
4.561173e-09
2.0711661e-09
9.3902636e-10
4.2534441e-10
1.9291501e-10
8.755453e-11
3.9717753e-11
1.8067446e-11
8.2439193e-12
3.7829276e-12
1.7221815e-12
7.8262894e-13
3.5157465e-13
1.6498722e-13
5.8426462e-14
0.99999998
0.99999986
0.99999934
0.99999807
0.99999197
0.99997968
0.99992612
0.99978666
0.99938804
0.99837431
0.99597992
0.99076427
0.98023502
0.96048875
0.92599431
0.86975856
0.7840937
0.6621292
0.49997551
0.34046383
0.22346526
0.14186077
0.087364794
0.052333763
0.030564308
0.017439637
0.0097400023
0.005333456
0.0028677991
0.0015162965
0.00078935287
0.00040506459
0.00020512669
0.00010261519
5.0758466e-05
2.4848445e-05
1.2048861e-05
5.7914836e-06
2.7615319e-06
1.3071597e-06
6.146369e-07
2.872803e-07
1.3355397e-07
6.1787993e-08
2.8462158e-08
1.3060821e-08
5.9733125e-09
2.7239144e-09
1.239037e-09
5.624476e-10
2.5499214e-10
1.1548646e-10
5.2234424e-11
2.3614821e-11
1.0658167e-11
4.8074686e-12
2.1689184e-12
9.679717e-13
4.5474511e-13
1.6536173e-13
0.99999999
0.99999994
0.99999971
0.99999917
0.99999646
0.99999117
0.99996711
0.99990499
0.99972107
0.99923692
0.99804706
0.99534171
0.98962825
0.97839753
0.95779679
0.92246029
0.86569113
0.78020011
0.65951401
0.49997381
0.34290744
0.22692142
0.14536068
0.090390726
0.05470076
0.032286381
0.018623521
0.010517024
0.0058238549
0.0031670109
0.0016935195
0.00089159141
0.00046266789
0.00023689608
0.00011979979
5.9890587e-05
2.962331e-05
1.4508627e-05
7.0414254e-06
3.3887661e-06
1.6183054e-06
7.6735817e-07
3.6151174e-07
1.6930946e-07
7.8868814e-08
3.6561415e-08
1.6875622e-08
7.7592293e-09
3.555617e-09
1.6247962e-09
7.4081947e-10
3.371643e-10
1.5321199e-10
6.9524371e-11
3.1549315e-11
1.4311738e-11
6.5025953e-12
2.9198714e-12
1.3734433e-12
4.9548138e-13
1
0.99999997
0.99999989
0.99999958
0.99999864
0.99999565
0.99998614
0.99995752
0.99987406
0.99964612
0.99906629
0.99769477
0.99467498
0.98847402
0.9765716
0.955171
0.91906387
0.86182775
0.7765344
0.65706785
0.49997512
0.34520285
0.23019225
0.14870278
0.093309231
0.057008357
0.033984302
0.019804554
0.011301543
0.0063250711
0.0034766184
0.0018791847
0.0010000331
0.00052452207
0.00027142783
0.00013870466
7.0056807e-05
3.5001271e-05
1.7310952e-05
8.4814759e-06
4.119347e-06
1.9845921e-06
9.4900166e-07
4.506798e-07
2.1267369e-07
9.9777874e-08
4.6564413e-08
2.1626591e-08
1.0000998e-08
4.6072128e-09
2.1154336e-09
9.685981e-10
4.4241844e-10
2.0165043e-10
9.1736416e-11
4.1652757e-11
1.8927604e-11
8.5018898e-12
4.0107006e-12
1.4540872e-12
1
0.99999999
0.99999996
0.99999981
0.99999945
0.9999979
0.99999427
0.99998066
0.99994363
0.99983754
0.99955976
0.99887819
0.99731872
0.99398363
0.98730571
0.97476065
0.95261005
0.91579624
0.85815073
0.77307416
0.65477263
0.49997858
0.34736484
0.23329467
0.15189967
0.096127245
0.059259081
0.035658047
0.020981659
0.01209233
0.0068361267
0.0037959872
0.0020729487
0.0011145319
0.00059059385
0.00030874208
0.00015936782
8.1294997e-05
4.1013053e-05
2.047817e-05
1.0126706e-05
4.9628907e-06
2.4118939e-06
1.1630359e-06
5.567773e-07
2.6476193e-07
1.2512404e-07
5.8797021e-08
2.7485959e-08
1.2788453e-08
5.924999e-09
2.7348342e-09
1.2581715e-09
5.7712409e-10
2.640636e-10
1.2049392e-10
5.4989772e-11
2.4788986e-11
1.1733388e-11
4.2628001e-12
1
0.99999999
0.99999998
0.99999991
0.99999976
0.99999904
0.99999758
0.9999913
0.99997481
0.999926
0.99979479
0.99946201
0.99867304
0.99692073
0.99327077
0.98612726
0.9729675
0.95011289
0.91264963
0.85464498
0.76980009
0.65261286
0.49998324
0.34940612
0.23624366
0.15496279
0.09885132
0.061455512
0.037307792
0.02215394
0.012888272
0.0073560926
0.004124488
0.0022744527
0.0012349212
0.00066083222
0.00034884613
0.00018181899
9.3638278e-05
4.7686991e-05
2.4031574e-05
1.1991849e-05
5.9290111e-06
2.9062119e-06
1.413076e-06
6.8191557e-07
3.2677442e-07
1.5557384e-07
7.3622092e-08
3.4647348e-08
1.6222824e-08
7.5609932e-09
3.5093225e-09
1.6226648e-09
7.4782973e-10
3.4343935e-10
1.5763932e-10
7.1413577e-11
3.396821e-11
1.2387791e-11
1
1
0.99999999
0.99999996
0.9999999
0.99999957
0.99999894
0.99999612
0.99998878
0.99996648
0.99990526
0.99974523
0.99935325
0.99845154
0.99650273
0.99253941
0.98494223
0.9711945
0.94767831
0.90961703
0.85129711
0.76669532
0.65057502
0.49998832
0.35133794
0.23905261
0.15790255
0.10148753
0.063600127
0.038933766
0.023320594
0.013688318
0.0078840667
0.0044614919
0.0024833245
0.0013610176
0.00073517113
0.00039173599
0.00020608048
0.00010711541
5.5049125e-05
2.7991405e-05
1.4091275e-05
7.0272897e-06
3.4736396e-06
1.7028516e-06
8.283052e-07
3.9998539e-07
1.9184473e-07
9.1435205e-08
4.332471e-08
2.041796e-08
9.574955e-09
4.4697137e-09
2.0780877e-09
9.6204205e-10
4.448562e-10
2.0283359e-10
9.7105437e-11
3.5592185e-11
1
1
1
0.99999998
0.99999995
0.99999981
0.99999953
0.99999826
0.99999504
0.99998486
0.99995662
0.99988065
0.999689
0.99923353
0.99821464
0.99606656
0.99179239
0.98375372
0.96944359
0.94530493
0.90669184
0.84809506
0.76374491
0.64864728
0.49999325
0.3531703
0.24173348
0.16072829
0.10404138
0.065695173
0.040536165
0.02448085
0.014491458
0.0084191681
0.0048063729
0.0026991837
0.0014926254
0.00081353262
0.00043739824
0.00023216804
0.00012175113
6.3123297e-05
3.2376873e-05
1.6438981e-05
8.267258e-06
4.1203484e-06
2.0362015e-06
9.9825492e-07
4.8574459e-07
2.3470666e-07
1.1266602e-07
5.3753088e-08
2.5500415e-08
1.2033536e-08
5.651596e-09
2.6410492e-09
1.2320317e-09
5.6614378e-10
2.7321935e-10
1.0078643e-10
1
1
1
0.99999999
0.99999998
0.99999992
0.99999979
0.99999922
0.99999782
0.99999317
0.99998027
0.9999446
0.99985221
0.99962592
0.99910318
0.99796325
0.99561401
0.99103227
0.98256439
0.96771617
0.94299108
0.9038678
0.84502781
0.76093549
0.64681924
0.49999768
0.35491205
0.24429682
0.16344826
0.10651772
0.067742615
0.042115113
0.025633956
0.015296718
0.0089605454
0.0051585176
0.0029216501
0.0016295423
0.00089583038
0.00048581199
0.00026009196
0.00013756665
7.1931343e-05
3.7206207e-05
1.9048584e-05
9.6583761e-06
4.8525695e-06
2.4170604e-06
1.1941654e-06
5.8547461e-07
2.8498171e-07
1.377789e-07
6.6190274e-08
3.1609489e-08
1.5013694e-08
7.0905999e-09
3.3410969e-09
1.5491587e-09
7.5469255e-10
2.8053386e-10
1
1
1
1
0.99999999
0.99999996
0.99999991
0.99999965
0.99999905
0.99999692
0.99999107
0.99997448
0.99993049
0.99981971
0.99955604
0.99896254
0.99769832
0.99514677
0.99026132
0.98137647
0.96601318
0.94073487
0.90113892
0.84208531
0.75825516
0.64508179
0.5000014
0.35657096
0.24675184
0.16606967
0.10892078
0.069744148
0.043670672
0.026779195
0.016103182
0.0095073904
0.0055173368
0.0031503514
0.0017715649
0.0009819729
0.00053695067
0.00028985792
0.00015458008
8.1493282e-05
4.2496719e-05
2.1933331e-05
1.1210024e-05
5.676582e-06
2.8494525e-06
1.4185252e-06
7.006696e-07
3.4354324e-07
1.6727467e-07
8.0913936e-08
3.8904671e-08
1.8587481e-08
8.8562698e-09
4.1476764e-09
2.0422405e-09
7.6584368e-10
1
1
1
1
1
0.99999998
0.99999996
0.99999984
0.99999959
0.9999986
0.99999599
0.99998833
0.99996761
0.99991408
0.9997831
0.99947939
0.998812
0.99742075
0.99466637
0.98948152
0.98019176
0.96433516
0.93853423
0.89849952
0.83925841
0.75569332
0.64342696
0.50000428
0.35815376
0.24910654
0.16859881
0.11125428
0.071701264
0.045202894
0.027915914
0.01691001
0.010058953
0.0058822747
0.00338493
0.0019184923
0.001071866
0.0005907836
0.00032146791
0.00017280685
9.1827509e-05
4.8264868e-05
2.5106113e-05
1.2931495e-05
6.598704e-06
3.3374834e-06
1.673908e-06
8.3289155e-07
4.1131976e-07
2.0168177e-07
9.8242292e-08
4.7522726e-08
2.2916456e-08
1.0849849e-08
5.405294e-09
2.0469379e-09
1
1
1
1
1
0.99999999
0.99999998
0.99999993
0.99999982
0.99999937
0.99999819
0.99999469
0.99998502
0.99995946
0.99989528
0.99974229
0.99939608
0.99865197
0.99713143
0.9941742
0.98869458
0.97901172
0.96268234
0.93638703
0.89594429
0.83653884
0.75324061
0.64184782
0.50000627
0.35966633
0.25136792
0.17104123
0.11352154
0.073615341
0.046711869
0.029043556
0.017716453
0.010614549
0.0062528152
0.0036250466
0.0020701296
0.0011654149
0.00064727719
0.00035492093
0.00019226018
0.00010295098
5.4526344e-05
2.8579483e-05
1.4831994e-05
7.6252843e-06
3.8853361e-06
1.9629616e-06
9.8377974e-07
4.892682e-07
2.4161187e-07
1.1841422e-07
5.7835471e-08
2.7701537e-08
1.3976245e-08
5.3493918e-09
1
1
1
1
1
1
0.99999999
0.99999997
0.99999992
0.99999972
0.99999919
0.99999759
0.99999312
0.99998104
0.99994998
0.99987399
0.99969725
0.99930622
0.99848285
0.99683117
0.99367152
0.98790197
0.9778375
0.96105471
0.93429111
0.89346834
0.83391921
0.75088877
0.64033832
0.5000074
0.36111384
0.25354219
0.17340192
0.11572562
0.075487716
0.048197759
0.03016167
0.018521859
0.011173564
0.0066284833
0.0038703821
0.0022262887
0.0012625254
0.00070639598
0.00039021369
0.00021295135
0.00011487942
6.1296133e-05
3.2365674e-05
1.692063e-05
8.7626995e-06
4.4972469e-06
2.2884359e-06
1.1549763e-06
5.7852472e-07
2.8743375e-07
1.4228139e-07
6.898382e-08
3.5274565e-08
1.365615e-08
1
1
1
1
1
1
1
0.99999999
0.99999996
0.99999988
0.99999963
0.99999892
0.99999686
0.9999912
0.99997633
0.99993908
0.99985015
0.99964796
0.99920994
0.99830505
0.99652075
0.99315946
0.98710498
0.97667003
0.95945211
0.93224444
0.89106718
0.83139291
0.7486305
0.63889318
0.50000776
0.36250093
0.25563497
0.17568545
0.11786943
0.077319727
0.049660818
0.031269918
0.019325673
0.011735453
0.0070088445
0.0041206384
0.0023867903
0.0013631051
0.00076810353
0.00042734114
0.00023489012
0.00012762742
6.8588582e-05
3.6476605e-05
1.9206429e-05
1.0017299e-05
5.1775841e-06
2.6529822e-06
1.3485305e-06
6.7953672e-07
3.4109528e-07
1.6748452e-07
8.6856473e-08
3.4033029e-08
1
1
1
1
1
1
1
0.99999999
0.99999998
0.99999995
0.99999983
0.99999951
0.99999857
0.99999594
0.9999889
0.99997084
0.99992669
0.99982368
0.99959444
0.99910741
0.99811897
0.99620089
0.99263904
0.98630472
0.97551008
0.95787429
0.93024505
0.88873674
0.828954
0.74645931
0.63750775
0.50000752
0.36383179
0.25765138
0.17789612
0.11995573
0.079112728
0.051101383
0.032368061
0.020127425
0.012299729
0.0073935026
0.0043755374
0.0025514638
0.0014670643
0.00083236314
0.00046629699
0.00025808494
0.00014120865
7.6417407e-05
4.0923923e-05
2.1698195e-05
1.1395626e-05
5.9303217e-06
3.060218e-06
1.5646381e-06
7.9675951e-07
3.9636816e-07
2.0858454e-07
8.276636e-08
1
1
1
1
1
1
1
1
0.99999999
0.99999998
0.99999992
0.99999978
0.99999935
0.99999814
0.99999483
0.99998617
0.99996452
0.99991275
0.99979455
0.99953669
0.99899878
0.99792501
0.99587226
0.99211117
0.98550215
0.97435826
0.95632093
0.92829105
0.88647324
0.82659706
0.74436935
0.63617784
0.50000682
0.36511028
0.25959618
0.18003793
0.12198719
0.080868082
0.052519858
0.033455942
0.020926719
0.012865963
0.0077820971
0.0046348215
0.0027201485
0.0015743168
0.00089913838
0.00050707399
0.00028254314
0.00015563575
8.4795817e-05
4.5718664e-05
2.4405117e-05
1.290306e-05
6.7617884e-06
3.5089687e-06
1.8134877e-06
9.1432597e-07
4.8848196e-07
1.9638338e-07
1
1
1
1
1
1
1
1
1
0.99999999
0.99999997
0.9999999
0.99999971
0.99999915
0.99999761
0.9999935
0.99998299
0.9999573
0.9998972
0.99976272
0.99947476
0.99888422
0.99772354
0.9955355
0.9915767
0.98469812
0.97321505
0.95479162
0.92638064
0.88427315
0.82431712
0.74235526
0.63489964
0.5000058
0.36633991
0.26147378
0.18211466
0.12396636
0.082587139
0.053916693
0.034533472
0.021723223
0.013433774
0.008174301
0.0048982527
0.0028926931
0.0016847801
0.00096839333
0.00054966417
0.00030827078
0.00017092072
9.3735673e-05
5.0872835e-05
2.7333324e-05
1.4550762e-05
7.6663171e-06
4.0224825e-06
2.0559559e-06
1.1155939e-06
4.5460464e-07
1
1
1
1
1
1
1
1
1
1
0.99999998
0.99999996
0.99999987
0.99999961
0.9999989
0.99999696
0.99999192
0.99997931
0.99994914
0.99987999
0.99972817
0.9994087
0.99876392
0.99751492
0.99519118
0.99103637
0.98389337
0.97208083
0.9532859
0.92451205
0.88213314
0.82210955
0.7404121
0.63366963
0.50000457
0.36752394
0.26328825
0.18412985
0.12589566
0.084271218
0.05529237
0.03560062
0.022516663
0.014002829
0.0085698195
0.0051656121
0.0030689564
0.001798375
0.0010400927
0.00059405822
0.00033527345
0.00018707276
0.00010325149
5.6390882e-05
3.0503057e-05
1.6320701e-05
8.6966787e-06
4.507185e-06
2.4848591e-06
1.0267613e-06
1
1
1
1
1
1
1
1
1
1
0.99999999
0.99999998
0.99999994
0.99999983
0.9999995
0.99999859
0.99999619
0.99999007
0.9999751
0.99994
0.99986109
0.99969088
0.99933855
0.99863804
0.99729951
0.99483985
0.99049085
0.9830885
0.97095583
0.95180323
0.92268351
0.88005005
0.81997006
0.73853534
0.63248463
0.50000323
0.36866532
0.26504335
0.18608676
0.1277774
0.085921601
0.056647391
0.036657402
0.023306817
0.014572838
0.0089683874
0.0054366982
0.0032488051
0.0019150261
0.0011142
0.00064024759
0.00036355107
0.00020410827
0.00011333973
6.2311149e-05
3.3865294e-05
1.8331615e-05
9.635386e-06
5.3989805e-06
2.262946e-06
1
1
1
1
1
1
1
1
1
1
1
0.99999999
0.99999997
0.99999992
0.99999977
0.99999935
0.99999822
0.99999527
0.99998793
0.99997032
0.99992984
0.99984045
0.99965085
0.99926437
0.99850675
0.99707762
0.99448198
0.98994072
0.98228404
0.96984021
0.950343
0.92089333
0.87802093
0.81789467
0.73672083
0.63134172
0.50000182
0.36976676
0.26674254
0.18798847
0.12961371
0.087539529
0.057982275
0.037703878
0.024093509
0.015143547
0.0093697658
0.0057113243
0.0034321141
0.0020346568
0.0011906831
0.00068821181
0.00039312208
0.00022200152
0.00012407666
6.8511611e-05
3.7683985e-05
2.0091605e-05
1.1445467e-05
4.8678197e-06
1
1
1
1
1
1
1
1
1
1
1
1
0.99999999
0.99999996
0.9999999
0.9999997
0.99999917
0.99999777
0.9999942
0.99998547
0.99996495
0.99991862
0.99981805
0.99960807
0.99918622
0.99837022
0.99684956
0.99411803
0.98938651
0.98148043
0.96873406
0.94890461
0.9191399
0.87604304
0.81587978
0.73496484
0.63023831
0.50000043
0.37083073
0.26838899
0.18983779
0.13140664
0.08912621
0.059297554
0.038740147
0.024876606
0.015714736
0.0097737352
0.0059893183
0.003618757
0.0021572033
0.0012694837
0.00073797577
0.00042390813
0.00024091053
0.00013517549
7.5570285e-05
4.0875225e-05
2.3679644e-05
1.0222445e-05
1
1
1
1
1
1
1
1
1
1
1
1
0.99999999
0.99999998
0.99999995
0.99999986
0.99999962
0.99999895
0.99999723
0.99999295
0.99998267
0.99995895
0.99990631
0.99979385
0.99956254
0.99910417
0.99822861
0.99661561
0.99374839
0.98882868
0.98067802
0.96763741
0.94748748
0.91742174
0.8741139
0.81392212
0.733264
0.62917206
0.49999911
0.37185948
0.26998559
0.1916374
0.1331581
0.090682828
0.060593769
0.039766333
0.025656008
0.016286206
0.010180096
0.0062704984
0.0038086362
0.0022825445
0.0013506513
0.00078934808
0.00045624447
0.00026019107
0.00014787972
8.1158381e-05
4.7825152e-05
2.0962407e-05
1
1
1
1
1
1
1
1
1
1
1
1
1
0.99999999
0.99999998
0.99999994
0.99999982
0.99999951
0.99999869
0.99999661
0.99999151
0.99997951
0.9999523
0.99989287
0.99976785
0.99951427
0.99901827
0.99808207
0.99637605
0.99337345
0.98826766
0.97987718
0.96655031
0.94609107
0.91573752
0.87223128
0.8120188
0.73161533
0.6281409
0.49999789
0.37285512
0.27153501
0.19338982
0.13486989
0.092210552
0.061871466
0.040782574
0.026431629
0.016857803
0.010588632
0.0065547533
0.0040015235
0.0024108013
0.0014337521
0.00084304649
0.00048872674
0.00028247113
0.00015730476
9.4317958e-05
4.1989023e-05
1
1
1
1
1
1
1
1
1
1
1
1
1
1
0.99999999
0.99999997
0.99999992
0.99999977
0.99999938
0.99999838
0.99999588
0.99998987
0.99997597
0.99994496
0.99987828
0.99974001
0.99946328
0.9989286
0.99793074
0.99613113
0.99299357
0.98770386
0.97907823
0.96547282
0.94471494
0.91408605
0.8703932
0.8101672
0.7300161
0.62714299
0.49999674
0.37381966
0.27303963
0.19509757
0.13654362
0.093710521
0.063131225
0.041788963
0.027203379
0.017429275
0.010999277
0.0068417038
0.0041977426
0.0025410708