/*--------------------------------*- C++ -*----------------------------------*\
  =========                 |
  \\      /  F ield         | OpenFOAM: The Open Source CFD Toolbox
   \\    /   O peration     | Website:  https://openfoam.org
    \\  /    A nd           | Version:  9
     \\/     M anipulation  |
\*---------------------------------------------------------------------------*/
FoamFile
{
    format      ascii;
    class       volScalarField;
    location    "1";
    object      T;
}
// * * * * * * * * * * * * * * * * * * * * * * * * * * * * * * * * * * * * * //

dimensions      [0 0 0 0 0 0 0];

internalField   nonuniform List<scalar> 
3600
(
0.49993103
0.13641021
0.045381196
0.016210096
0.0062342124
0.0024760463
0.00097855878
0.00037534854
0.0001522119
6.3045065e-05
2.6137049e-05
1.0839954e-05
4.4951102e-06
1.8633397e-06
7.7230494e-07
3.2022975e-07
1.3310329e-07
5.4871289e-08
2.2959488e-08
9.7413009e-09
4.2287987e-09
1.8111987e-09
7.8530609e-10
3.4049396e-10
1.4800427e-10
6.4587544e-11
2.8295903e-11
1.2445159e-11
5.4061471e-12
2.4200854e-12
1.0667905e-12
4.7003508e-13
2.0742938e-13
9.2052084e-14
4.1051677e-14
1.8300607e-14
8.1615128e-15
3.5738028e-15
1.5628518e-15
6.8532897e-16
3.0119341e-16
1.330691e-16
3.5148222e-17
7.1425912e-18
1.5036387e-18
3.3026672e-19
7.6642925e-20
1.8919987e-20
4.9157845e-21
1.3117011e-21
3.5069656e-22
9.2488271e-23
2.3901826e-23
6.0483939e-24
1.5020533e-24
3.6732598e-25
8.8784497e-26
2.1270854e-26
5.1154639e-27
1.0294931e-27
0.86362524
0.50001091
0.19679677
0.074914337
0.027755364
0.010761735
0.0042758586
0.0019155956
0.00084091662
0.00035747033
0.00015046175
6.3420618e-05
2.6873717e-05
1.1445382e-05
4.8478186e-06
1.8502726e-06
7.5259287e-07
3.2026387e-07
1.3832148e-07
5.8971403e-08
2.8363783e-08
1.3074176e-08
5.8197961e-09
2.5622744e-09
1.1259137e-09
4.949033e-10
2.1774327e-10
9.4997876e-11
3.7715079e-11
1.5603713e-11
6.798234e-12
3.0083578e-12
1.3346314e-12
5.9206275e-13
2.6213765e-13
1.1661581e-13
5.7127287e-14
2.6445095e-14
1.1903093e-14
5.311431e-15
2.36674e-15
1.0504869e-15
4.7945397e-16
1.6606458e-16
5.5103049e-17
1.7704476e-17
5.5138077e-18
1.6657545e-18
4.912472e-19
1.4315123e-19
4.1687327e-20
1.2209646e-20
3.6046929e-21
1.0725286e-21
3.2119438e-22
9.6666677e-23
2.9201182e-23
8.8278567e-24
2.7204397e-24
6.8144965e-25
0.95480958
0.80295666
0.49998473
0.22803962
0.0983705
0.040869997
0.016802226
0.0065702611
0.0025623841
0.0010556642
0.00044774585
0.00019162116
8.2376442e-05
3.5702342e-05
1.5124217e-05
7.5654058e-06
3.4682391e-06
1.5249309e-06
6.6379111e-07
2.8771023e-07
1.0906079e-07
4.4395122e-08
1.9264125e-08
8.5007219e-09
3.7531093e-09
1.6549791e-09
7.2927984e-10
3.1576654e-10
1.5586688e-10
7.3475029e-11
3.3057097e-11
1.4685307e-11
6.5159008e-12
2.8920574e-12
1.2788978e-12
5.5162234e-13
2.1605867e-13
9.1432374e-14
4.0416981e-14
1.8035182e-14
8.0515754e-15
3.5852406e-15
1.6196463e-15
7.1194528e-16
3.0352563e-16
1.0483376e-16
3.6594121e-17
1.2901216e-17
4.5786955e-18
1.604635e-18
5.494543e-19
1.8387677e-19
6.0428312e-20
1.9606554e-20
6.3082385e-21
2.018581e-21
6.4371143e-22
2.0432627e-22
6.6014579e-23
1.7189146e-23
0.98369247
0.92551893
0.77174664
0.50006781
0.24874988
0.1158927
0.051654177
0.022680809
0.0097775938
0.0041752263
0.0018020274
0.00077830987
0.00034054243
0.00015090161
6.5685722e-05
2.4988759e-05
1.0166639e-05
4.3787627e-06
1.9187868e-06
8.2853177e-07
4.1096529e-07
1.9330613e-07
8.6609835e-08
3.8258488e-08
1.6864456e-08
7.4345384e-09
3.2773984e-09
1.4452596e-09
5.6232115e-10
2.2815424e-10
9.9292333e-11
4.4128166e-11
1.9643769e-11
8.7301772e-12
3.876149e-12
1.7009301e-12
8.6731309e-13
4.0665077e-13
1.8331135e-13
8.1849025e-14
3.6523126e-14
1.628214e-14
7.3021197e-15
3.2659902e-15
1.44917e-15
6.2233138e-16
2.3904824e-16
8.7384774e-17
3.0242679e-17
1.0377879e-17
3.5943724e-18
1.254899e-18
4.3895139e-19
1.5303135e-19
5.3008511e-20
1.8221545e-20
6.217988e-21
2.1015566e-21
7.2206739e-22
1.976312e-22
0.99405536
0.9711602
0.90251434
0.75102352
0.50017444
0.264303
0.13100742
0.061817591
0.028173242
0.012508229
0.0054613208
0.0023745819
0.0010169212
0.00042761656
0.00018464193
8.6526742e-05
3.9624621e-05
1.7960681e-05
8.0139787e-06
3.5386117e-06
1.3933196e-06
5.5342897e-07
2.3697929e-07
1.0444187e-07
4.6210917e-08
2.0430596e-08
9.0263996e-09
3.9492048e-09
1.9403684e-09
9.2998646e-10
4.2197222e-10
1.8819191e-10
8.3712193e-11
3.7232551e-11
1.6523592e-11
7.355507e-12
2.8506912e-12
1.1745449e-12
5.156804e-13
2.305339e-13
1.0318672e-13
4.6110021e-14
2.0628222e-14
9.2313269e-15
4.1184742e-15
1.8316428e-15
7.9682839e-16
3.3605843e-16
1.3967758e-16
5.6222367e-17
2.1700522e-17
8.1150859e-18
2.968638e-18
1.0701865e-18
3.8211229e-19
1.354651e-19
4.7753051e-20
1.669007e-20
5.9498558e-21
1.6819452e-21
0.99773863
0.98821789
0.95980868
0.88377415
0.73595721
0.50008961
0.27614865
0.14347077
0.071090022
0.033908617
0.015707153
0.007119029
0.0031952818
0.0014261299
0.00062704004
0.00026991471
0.00011522472
4.852543e-05
2.0491647e-05
8.8472106e-06
4.2276072e-06
2.0613337e-06
9.5098358e-07
4.2503001e-07
1.8802844e-07
8.3078251e-08
3.6753253e-08
1.629404e-08
6.6591082e-09
2.6396334e-09
1.1303148e-09
5.0101049e-10
2.235065e-10
9.9688352e-11
4.4386043e-11
1.9563999e-11
9.5990902e-12
4.6500757e-12
2.1278982e-12
9.5478648e-13
4.2685818e-13
1.9079941e-13
8.532265e-14
3.8183116e-14
1.7073155e-14
7.6336078e-15
3.3859009e-15
1.4868882e-15
5.8171035e-16
2.1932242e-16
8.4076124e-17
3.2522122e-17
1.2617448e-17
4.8698332e-18
1.860323e-18
7.026685e-19
2.626966e-19
9.6853251e-20
3.6383504e-20
1.0728035e-20
0.99908637
0.99537546
0.98357004
0.94818498
0.8690759
0.72375407
0.49996607
0.28583053
0.15410434
0.079243808
0.039207611
0.018814686
0.0088040368
0.0040391723
0.0018292885
0.00082194191
0.00036804355
0.00016479309
7.3882791e-05
3.2915731e-05
1.4135475e-05
5.8320765e-06
2.4425528e-06
1.0597804e-06
4.688257e-07
2.0846912e-07
9.2841302e-08
4.1155944e-08
1.9349397e-08
9.6267246e-09
4.4651515e-09
2.0083655e-09
8.9672177e-10
4.0008888e-10
1.7850971e-10
7.949779e-11
3.3572989e-11
1.3217373e-11
5.6195967e-12
2.492275e-12
1.1160935e-12
5.0001415e-13
2.2388384e-13
1.002322e-13
4.4847105e-14
2.0057926e-14
8.9424352e-15
3.9370095e-15
1.8996316e-15
8.9030235e-16
3.9214024e-16
1.6265327e-16
6.4838976e-17
2.5285013e-17
9.7503433e-18
3.725065e-18
1.4123045e-18
5.2960224e-19
2.0339233e-19
6.1265372e-20
0.9996103
0.99828373
0.99296883
0.97772732
0.93813466
0.85663093
0.71405214
0.49987412
0.29398462
0.16347755
0.086790233
0.04434095
0.021949605
0.010586445
0.0049958149
0.0023153319
0.0010574626
0.00047730628
0.00021370165
9.5239758e-05
4.2392888e-05
1.9257003e-05
8.705889e-06
3.8904351e-06
1.7413619e-06
7.8337875e-07
3.5396329e-07
1.6023862e-07
6.8776102e-08
2.7335515e-08
1.1434842e-08
5.0426631e-09
2.2564186e-09
1.0122197e-09
4.5348729e-10
2.0256463e-10
9.1540763e-11
4.6455408e-11
2.1832675e-11
9.8819384e-12
4.4311674e-12
1.9852339e-12
8.8948609e-13
3.9846521e-13
1.7840896e-13
7.981881e-14
3.5677154e-14
1.5887702e-14
6.7532857e-15
2.6509576e-15
1.1078518e-15
4.7941373e-16
1.9949804e-16
8.2959585e-17
3.3983132e-17
1.3811174e-17
5.5673896e-18
2.2076047e-18
8.9532188e-19
2.8159641e-19
0.99983497
0.99932671
0.99702192
0.99053474
0.97179632
0.92910546
0.84590453
0.70595321
0.4998612
0.30089444
0.17169398
0.093669916
0.049200165
0.025026968
0.012390221
0.0059951167
0.002845625
0.0013292274
0.00061268844
0.00027937896
0.00012620119
5.6513509e-05
2.5242869e-05
1.1246751e-05
4.9756671e-06
2.1851676e-06
9.5271658e-07
4.1361165e-07
1.8764643e-07
8.9966641e-08
4.2097726e-08
1.9482843e-08
8.8111823e-09
3.9730214e-09
1.7836589e-09
7.9650305e-10
3.4781857e-10
1.3641682e-10
5.6119815e-11
2.4719958e-11
1.1108556e-11
4.9984276e-12
2.2445602e-12
1.0062868e-12
4.5066627e-13
2.0162212e-13
9.0136215e-14
4.0285562e-14
1.8173905e-14
9.2438511e-15
4.3417879e-15
1.9602769e-15
8.5286111e-16
3.6481647e-16
1.5448715e-16
6.3292923e-17
2.5473177e-17
1.010677e-17
4.1192162e-18
1.3049307e-18
0.99993047
0.99972305
0.99873152
0.9960395
0.98740082
0.96625905
0.92081916
0.83659568
0.69899977
0.49987382
0.30693905
0.1790847
0.10004037
0.053841331
0.028062535
0.014227119
0.0070428301
0.0034155752
0.001627415
0.00076403447
0.00035433139
0.00016266551
7.4090789e-05
3.35552e-05
1.5151504e-05
6.8294257e-06
3.0747276e-06
1.3940538e-06
6.1754518e-07
2.6754921e-07
1.1558305e-07
4.9424732e-08
2.1470765e-08
9.4687296e-09
4.2373908e-09
1.9009581e-09
8.5660032e-10
4.3391774e-10
2.0853274e-10
9.5659805e-11
4.3323558e-11
1.9503366e-11
8.7514579e-12
3.9193574e-12
1.753359e-12
7.8393127e-13
3.5113232e-13
1.5693011e-13
6.9755454e-14
2.7430498e-14
1.124768e-14
4.9305052e-15
2.2087155e-15
9.8141144e-16
4.319184e-16
1.8404304e-16
7.8491906e-17
3.2767674e-17
1.4139274e-17
4.7028075e-18
0.99997081
0.99988265
0.99944724
0.99838862
0.99441916
0.98441585
0.96083612
0.91332074
0.8283087
0.69297014
0.4998821
0.31225808
0.1857549
0.10594321
0.05825634
0.031030792
0.016075715
0.0081282178
0.0040232708
0.0019549045
0.00093480376
0.00044078097
0.0002054416
9.4836289e-05
4.3420081e-05
1.9745436e-05
8.9283215e-06
4.0136149e-06
1.8065649e-06
8.1465305e-07
3.6949987e-07
1.6909408e-07
7.6450223e-08
3.4416606e-08
1.5522635e-08
7.0108523e-09
3.1384271e-09
1.290935e-09
5.3580041e-10
2.3267767e-10
1.0402033e-10
4.6855097e-11
2.1145353e-11
9.5457325e-12
4.3071719e-12
1.9395383e-12
8.7115727e-13
3.9037382e-13
1.7186765e-13
8.6229322e-14
4.1702997e-14
1.912058e-14
8.6230099e-15
3.8652491e-15
1.7318958e-15
7.598723e-16
3.2881032e-16
1.406708e-16
6.0625151e-17
1.9998636e-17
0.99998782
0.99994956
0.99976027
0.99934541
0.99756577
0.99295003
0.98121437
0.95574631
0.90637683
0.82091771
0.68763154
0.49989449
0.31701915
0.19184086
0.11144715
0.062469667
0.033931996
0.017926627
0.009241335
0.0046618796
0.0023073021
0.0011228826
0.00053848157
0.00025497255
0.00011942557
5.5421473e-05
2.5517136e-05
1.1666789e-05
5.3050795e-06
2.3994679e-06
1.0802745e-06
4.8517284e-07
2.1780347e-07
9.7301499e-08
4.3210076e-08
1.9132415e-08
8.5567935e-09
3.9820605e-09
1.8591703e-09
8.5259907e-10
3.9062937e-10
1.7870164e-10
8.1323801e-11
3.6937552e-11
1.671241e-11
7.5377807e-12
3.3898253e-12
1.5166052e-12
6.7165285e-13
2.7207082e-13
1.0920602e-13
4.7114928e-14
2.1181886e-14
9.5815574e-15
4.3221507e-15
1.9464327e-15
8.6859181e-16
3.8035704e-16
1.7029054e-16
5.8945283e-17
0.99999498
0.99997833
0.99989689
0.99972304
0.99893526
0.99686367
0.99121216
0.97811633
0.95085111
0.9000015
0.81422193
0.68288298
0.49991185
0.32130923
0.19741909
0.11659144
0.066491503
0.036762799
0.019773515
0.010377558
0.0053285569
0.0026832088
0.0013278968
0.00064715396
0.00031115345
0.0001478343
6.9510513e-05
3.2384681e-05
1.4972842e-05
6.877013e-06
3.1406099e-06
1.4277401e-06
6.4763553e-07
2.9334334e-07
1.3266792e-07
5.9870082e-08
2.6855146e-08
1.1930333e-08
5.2609412e-09
2.3146623e-09
1.0094841e-09
4.3916951e-10
1.9313292e-10
8.5819132e-11
3.8621116e-11
1.7419162e-11
7.8505721e-12
3.5317351e-12
1.5737803e-12
7.7103716e-13
3.8218862e-13
1.7861753e-13
8.1840783e-14
3.7148551e-14
1.6778767e-14
7.5562565e-15
3.3942284e-15
1.5074894e-15
6.8912424e-16
2.4021487e-16
0.99999795
0.99999003
0.99995913
0.9998707
0.99954699
0.99861056
0.99596961
0.98945309
0.97501378
0.94620461
0.89407599
0.80813512
0.67860736
0.49993473
0.32520734
0.20256324
0.12141802
0.070336269
0.039522557
0.021610675
0.011531215
0.0060193673
0.0030808038
0.0015491613
0.00076675101
0.0003741676
0.00018029922
8.590759e-05
4.0525848e-05
1.8950497e-05
8.7927133e-06
4.052191e-06
1.8570798e-06
8.4714358e-07
3.8485227e-07
1.741947e-07
7.8684676e-08
3.5549226e-08
1.6078597e-08
7.2816987e-09
3.3210895e-09
1.5153818e-09
6.8642345e-10
3.1012798e-10
1.4033259e-10
6.3674647e-11
2.8999062e-11
1.3199772e-11
5.9445354e-12
2.4988155e-12
1.0188345e-12
4.3388157e-13
1.9405532e-13
8.812448e-14
4.0105194e-14
1.8212552e-14
8.258624e-15
3.6960828e-15
1.7356415e-15
6.2122491e-16
0.99999916
0.99999532
0.99998415
0.99993738
0.99981639
0.99937968
0.99818048
0.99502196
0.98763614
0.97197026
0.94177158
0.88856144
0.80255581
0.6747314
0.49995751
0.32876845
0.20732896
0.12596141
0.074018119
0.042213141
0.023435165
0.012698354
0.0067313938
0.0034982876
0.001785773
0.00089694561
0.0004439717
0.00021687612
0.00010468968
4.999976e-05
2.3652817e-05
1.1093993e-05
5.1646925e-06
2.3889036e-06
1.0987662e-06
5.0286226e-07
2.2915073e-07
1.0402625e-07
4.7070628e-08
2.1241705e-08
9.5649084e-09
4.3006776e-09
1.9302188e-09
8.631342e-10
3.8431691e-10
1.7058854e-10
7.5325027e-11
3.3224713e-11
1.4918912e-11
7.0000855e-12
3.3612123e-12
1.5936866e-12
7.3583204e-13
3.3795545e-13
1.5447955e-13
7.031786e-14
3.1984059e-14
1.4361561e-14
6.7520561e-15
2.4312465e-15
0.99999966
0.99999792
0.99999336
0.99997147
0.99992421
0.99972248
0.9991878
0.99769081
0.99402009
0.98579143
0.9689906
0.93754495
0.88340784
0.79741425
0.67119096
0.49997712
0.33204022
0.21176466
0.13025199
0.07754964
0.04483641
0.025244055
0.013875346
0.0074618368
0.003933934
0.0020368782
0.0010374402
0.00052054665
0.00025765433
0.00012596213
6.0892932e-05
2.9139064e-05
1.3816624e-05
6.4977789e-06
3.0335244e-06
1.4070413e-06
6.4891359e-07
2.978072e-07
1.3610838e-07
6.1983007e-08
2.8138455e-08
1.2758475e-08
5.7827901e-09
2.6194217e-09
1.1854204e-09
5.3631378e-10
2.4376607e-10
1.1083383e-10
4.9862169e-11
2.1938821e-11
9.540094e-12
4.0894006e-12
1.7783228e-12
7.8546423e-13
3.5320071e-13
1.5989505e-13
7.2567252e-14
3.2595375e-14
1.5446666e-14
5.5990129e-15
0.99999986
0.9999991
0.99999712
0.99998743
0.99996727
0.99987711
0.99963936
0.9989436
0.99716219
0.9929658
0.98393621
0.96607771
0.93351191
0.87857368
0.79265166
0.66793621
0.49999217
0.33506205
0.21591111
0.13431617
0.080942617
0.047394422
0.027035054
0.015058953
0.0082079978
0.0043859985
0.0023015582
0.0011878502
0.0006037977
0.0003026687
0.00014979717
7.3277798e-05
3.546617e-05
1.6999847e-05
8.0770947e-06
3.8072496e-06
1.7817851e-06
8.2855226e-07
3.831281e-07
1.7628666e-07
8.0758966e-08
3.6856697e-08
1.67711e-08
7.6134934e-09
3.4489764e-09
1.558931e-09
7.0304407e-10
3.1667954e-10
1.4264805e-10
6.4460354e-11
2.9266335e-11
1.3528794e-11
6.1965925e-12
2.8165648e-12
1.2783437e-12
5.8212109e-13
2.6617358e-13
1.2173053e-13
5.7769601e-14
2.1127598e-14
0.99999994
0.99999961
0.99999875
0.99999451
0.99998566
0.99994569
0.99984049
0.99952158
0.99867435
0.99658737
0.9918767
0.98207682
0.96323735
0.9296569
0.87402472
0.78821833
0.66492736
0.5000028
0.33786661
0.21980187
0.1381759
0.084206775
0.049888845
0.028806136
0.016246261
0.0089674185
0.0048528585
0.0025789266
0.0013477867
0.0006936167
0.00035193561
0.00017625427
8.7216684e-05
4.268387e-05
2.067891e-05
9.9257447e-06
4.7241137e-06
2.2311926e-06
1.0465156e-06
4.878202e-07
2.2612987e-07
1.0430815e-07
4.7911769e-08
2.1928978e-08
1.0006423e-08
4.5537068e-09
2.0671779e-09
9.3650677e-10
4.2350893e-10
1.9117517e-10
8.6186508e-11
3.8692582e-11
1.7356227e-11
7.767006e-12
3.4669983e-12
1.5404323e-12
6.8496434e-13
2.9683534e-13
1.3877606e-13
4.9564332e-14
0.99999998
0.99999983
0.99999946
0.99999761
0.99999368
0.99997576
0.9999304
0.99978411
0.99938923
0.99837267
0.99597772
0.99075779
0.98022297
0.96046862
0.92596741
0.86973008
0.78407459
0.66213236
0.50000996
0.34048095
0.22346493
0.14184971
0.087350491
0.052321227
0.030555579
0.017434691
0.0097378649
0.0053329915
0.0028681145
0.0015168435
0.00078986468
0.00040544922
0.00020537936
0.00010276491
5.0839754e-05
2.4889158e-05
1.2067596e-05
5.7992744e-06
2.764377e-06
1.3080015e-06
6.1475626e-07
2.8718204e-07
1.3342765e-07
6.1694203e-08
2.8405947e-08
1.3030378e-08
5.9570906e-09
2.7153378e-09
1.2347488e-09
5.6035463e-10
2.5385038e-10
1.1499912e-10
5.2145219e-11
2.364938e-11
1.0714063e-11
4.8642646e-12
2.2154314e-12
1.0093025e-12
4.7310512e-13
1.7244063e-13
0.99999999
0.99999993
0.99999977
0.99999896
0.99999726
0.99998919
0.99996955
0.99990347
0.99972128
0.99923535
0.99804442
0.99533567
0.98961729
0.97837957
0.95777175
0.92243091
0.86566472
0.78018732
0.65952566
0.50001463
0.34292707
0.22692336
0.14535316
0.090381058
0.054693114
0.03228204
0.018622051
0.010517366
0.0058250061
0.0031682992
0.001694611
0.0008923855
0.00046318612
0.00023720514
0.00011996975
5.9976993e-05
2.966372e-05
1.4525715e-05
7.0477164e-06
3.3905821e-06
1.6185136e-06
7.6711302e-07
3.6122326e-07
1.6909522e-07
7.8737477e-08
3.6489029e-08
1.6837468e-08
7.7396695e-09
3.5456631e-09
1.6194861e-09
7.3776921e-10
3.352908e-10
1.521237e-10
6.8937612e-11
3.1205655e-11
1.4095099e-11
6.3751345e-12
2.8437987e-12
1.3363685e-12
4.8028745e-13
1
0.99999997
0.99999988
0.99999961
0.9999986
0.99999572
0.99998596
0.99995736
0.99987375
0.9996452
0.99906422
0.99769032
0.99466662
0.98846006
0.97655117
0.95514512
0.91903671
0.86180686
0.77652923
0.65708597
0.50001744
0.34522317
0.23019663
0.14869973
0.093305094
0.057006161
0.033984552
0.019806507
0.011304185
0.0063276315
0.0034786977
0.0018806804
0.0010010106
0.00052510955
0.0002717542
0.00013887222
7.0135692e-05
3.5034612e-05
1.7322943e-05
8.4845557e-06
4.1192923e-06
1.9837662e-06
9.4821525e-07
4.5012704e-07
2.1233783e-07
9.9591679e-08
4.6466876e-08
2.1577365e-08
9.9768153e-09
4.5953633e-09
2.1093788e-09
9.6533131e-10
4.4064994e-10
2.0072355e-10
9.1274845e-11
4.1417893e-11
1.8799336e-11
8.4484392e-12
3.9867397e-12
1.4454941e-12
1
0.99999999
0.99999995
0.99999984
0.99999934
0.99999824
0.99999358
0.99998127
0.99994303
0.99983711
0.99955828
0.99887529
0.99731308
0.99397399
0.98729095
0.9747408
0.95258709
0.91577482
0.85813776
0.77307684
0.6547951
0.50001854
0.3473844
0.23330142
0.15190138
0.096128772
0.059262169
0.035662495
0.020986545
0.012096804
0.0068397106
0.0037985696
0.0020746493
0.0011155637
0.00059117197
0.00030904023
0.00015950767
8.1352853e-05
4.1032419e-05
2.0481674e-05
1.0124961e-05
4.9602294e-06
2.4097244e-06
1.1615924e-06
5.5592025e-07
2.6429149e-07
1.2487994e-07
5.8675346e-08
2.7427018e-08
1.27603e-08
5.9113906e-09
2.7279512e-09
1.2545291e-09
5.7516815e-10
2.6301979e-10
1.1993343e-10
5.4681707e-11
2.4616225e-11
1.1634967e-11
4.2189829e-12
1
1
0.99999998
0.99999993
0.99999971
0.99999924
0.9999971
0.99999184
0.99997434
0.99992586
0.99979391
0.99946033
0.99866961
0.99691471
0.99326118
0.98611373
0.97295077
0.95009552
0.91263608
0.85464073
0.76980968
0.65263718
0.50001786
0.34942381
0.23625242
0.15496892
0.098857906
0.061463053
0.037315527
0.022160921
0.012893892
0.0073601886
0.0041272195
0.0022761281
0.0012358662
0.00066131889
0.00034907052
0.00018190698
9.3662847e-05
4.7686448e-05
2.4023848e-05
1.1984079e-05
5.9232607e-06
2.9025299e-06
1.4109276e-06
6.8074611e-07
3.2617182e-07
1.5527642e-07
7.3480152e-08
3.4581213e-08
1.6192238e-08
7.5465704e-09
3.5022135e-09
1.6189913e-09
7.4587299e-10
3.4238047e-10
1.5704456e-10
7.1081049e-11
3.3760718e-11
1.2288784e-11
1
1
0.99999999
0.99999997
0.99999987
0.99999966
0.99999869
0.99999647
0.99998845
0.9999665
0.99990479
0.99974436
0.99935136
0.99844812
0.99649708
0.99253113
0.98493149
0.97118263
0.94766796
0.90961189
0.85130084
0.76670977
0.65059852
0.50001544
0.35135291
0.23906274
0.15791219
0.10149796
0.063610776
0.038943521
0.023328608
0.013694278
0.0078881089
0.0044640006
0.0024847447
0.0013617415
0.00073549207
0.00039184761
0.00020609718
0.0001070976
5.5024726e-05
2.7970901e-05
1.4076974e-05
7.0183541e-06
3.46848e-06
1.7000547e-06
8.2686789e-07
3.9927967e-07
1.9151124e-07
9.1282366e-08
4.3255993e-08
2.0387004e-08
9.5605386e-09
4.4625825e-09
2.0743059e-09
9.5992986e-10
4.4360261e-10
2.0209174e-10
9.6604129e-11
3.5336377e-11
1
1
1
0.99999999
0.99999994
0.99999985
0.99999941
0.99999846
0.99999481
0.99998495
0.9999564
0.99988026
0.99968807
0.99923177
0.99821163
0.996062
0.99178629
0.98374675
0.96943731
0.94530169
0.90669422
0.84810478
0.76376153
0.64866748
0.50001175
0.35318201
0.24174416
0.16074012
0.10405403
0.065707289
0.040546499
0.024488766
0.014496943
0.0084226133
0.0048083198
0.0027001505
0.0014930194
0.00081363192
0.00043737042
0.00023210192
0.00012168667
6.3073905e-05
3.2343631e-05
1.641851e-05
8.2554956e-06
4.1139753e-06
2.0329241e-06
9.9664737e-07
4.8498893e-07
2.3436429e-07
1.1251512e-07
5.3687219e-08
2.5470978e-08
1.2019471e-08
5.6441416e-09
2.6367219e-09
1.2292738e-09
5.6441065e-10
2.7196304e-10
1.0011142e-10
1
1
1
0.99999999
0.99999998
0.99999993
0.99999977
0.99999927
0.99999774
0.99999322
0.99998017
0.99994444
0.9998518
0.99962511
0.99910174
0.99796102
0.99561099
0.99102883
0.98256148
0.96771527
0.94299395
0.90387576
0.84504086
0.76095157
0.64683435
0.50000755
0.35492034
0.24430714
0.16346076
0.1065308
0.067754493
0.042124612
0.025640721
0.015301013
0.0089629429
0.0051596406
0.0029220228
0.0016295377
0.00089567852
0.00048563463
0.00025994146
0.00013745703
7.1859066e-05
3.7162024e-05
1.9023222e-05
9.6446067e-06
4.8454685e-06
2.4135719e-06
1.1925282e-06
5.8473772e-07
2.8466095e-07
1.3764139e-07
6.6129958e-08
3.1580808e-08
1.4998036e-08
7.0809475e-09
3.3344501e-09
1.5447306e-09
7.5130558e-10
2.7865227e-10
1
1
1
1
0.99999999
0.99999996
0.9999999
0.99999966
0.99999902
0.99999695
0.99999104
0.99997443
0.99993033
0.99981938
0.99955543
0.99896159
0.99769706
0.99514546
0.99026056
0.98137725
0.96601668
0.9407421
0.90115003
0.84209902
0.75826854
0.64509102
0.50000367
0.35657599
0.24676093
0.16608131
0.10893259
0.069754243
0.043678128
0.026783966
0.016105754
0.0095084367
0.005517482
0.0031500643
0.0017711422
0.00098157112
0.00053663218
0.00028963219
0.00015443277
8.1403423e-05
4.2445039e-05
2.190517e-05
1.1195444e-05
5.6693983e-06
2.8460796e-06
1.4170112e-06
7.0001408e-07
3.4326329e-07
1.6715076e-07
8.0852765e-08
3.8868829e-08
1.8563615e-08
8.8386772e-09
4.135458e-09
2.0325915e-09
7.6039157e-10
1
1
1
1
1
0.99999998
0.99999996
0.99999984
0.99999958
0.99999861
0.99999597
0.99998831
0.99996756
0.99991396
0.99978288
0.99947906
0.99881162
0.99742051
0.99466669
0.98948307
0.9801954
0.96434164
0.9385438
0.89851142
0.8392706
0.75570273
0.64343052
0.50000072
0.35815591
0.24911366
0.16860825
0.11126338
0.071708369
0.045207439
0.027918147
0.016910567
0.010058522
0.0058814126
0.0033839992
0.0019176833
0.0010712464
0.00059035016
0.00032118594
0.00017263454
9.1728e-05
4.8210381e-05
2.5077776e-05
1.2917486e-05
6.5921147e-06
3.3345232e-06
1.6726221e-06
8.3233368e-07
4.1106107e-07
2.0154256e-07
9.8152019e-08
4.7457908e-08
2.2866411e-08
1.081431e-08
5.376857e-09
2.0307835e-09
1
1
1
1
1
0.99999999
0.99999998
0.99999993
0.99999982
0.99999937
0.99999819
0.99999469
0.99998501
0.99995943
0.99989523
0.99974222
0.99939606
0.99865215
0.9971321
0.99417585
0.9886978
0.97901712
0.96269022
0.93639702
0.89595507
0.83654812
0.75324568
0.64184665
0.49999895
0.35966608
0.25137248
0.17104745
0.11352695
0.07361871
0.046713054
0.029043052
0.017714963
0.010612701
0.0062510384
0.0036235654
0.0020690124
0.0011646362
0.00064676953
0.00035460922
0.00019207914
0.00010285131
5.4474263e-05
2.8553644e-05
1.4819803e-05
7.619777e-06
3.882904e-06
1.9618577e-06
9.832178e-07
4.8892579e-07
2.4136565e-07
1.182273e-07
5.7687665e-08
2.7595743e-08
1.3891443e-08
5.3012547e-09
1
1
1
1
1
1
0.99999999
0.99999997
0.99999992
0.99999972
0.99999919
0.99999759
0.99999312
0.99998104
0.99994998
0.99987402
0.99969733
0.99930648
0.9984835
0.99683254
0.99367405
0.98790611
0.97784355
0.96106257
0.9343
0.89347668
0.83392491
0.75088979
0.64033371
0.49999824
0.36111164
0.25354383
0.17340432
0.11572685
0.07548711
0.048195575
0.030158574
0.018518539
0.011170523
0.0066259896
0.0038685067
0.0022249771
0.0012616651
0.00070586402
0.00038990263
0.00021277908
0.00011478899
6.1251099e-05
3.2344308e-05
1.691084e-05
8.7582041e-06
4.4950203e-06
2.287136e-06
1.1540723e-06
5.7782075e-07
2.8688188e-07
1.4184136e-07
6.8668796e-08
3.5022854e-08
1.3513679e-08
1
1
1
1
1
1
1
0.99999999
0.99999997
0.99999987
0.99999964
0.99999891
0.99999686
0.9999912
0.99997635
0.99993912
0.99985024
0.99964818
0.99921044
0.99830604
0.99652253
0.99316237
0.98710928
0.97667574
0.95945881
0.93225114
0.89107238
0.83139494
0.74862813
0.63888642
0.49999826
0.36249714
0.25563359
0.17568392
0.11786653
0.077315403
0.049655657
0.031264669
0.019320938
0.011731571
0.007005907
0.004118566
0.0023854183
0.0013622492
0.00076759933
0.00042706027
0.00023474203
0.0001275533
6.8553023e-05
3.6459796e-05
1.9198101e-05
1.0012576e-05
5.1743621e-06
2.6504859e-06
1.346489e-06
6.7791305e-07
3.3980021e-07
1.6655991e-07
8.6120761e-08
3.3617717e-08
1
1
1
1
1
1
1
0.99999999
0.99999998
0.99999994
0.99999984
0.99999951
0.99999857
0.99999595
0.99998891
0.99997087
0.99992676
0.99982384
0.99959476
0.99910804
0.99812012
0.99620277
0.99264185
0.98630852
0.97551466
0.95787903
0.93024895
0.88873855
0.82895261
0.74645432
0.63749988
0.49999864
0.36382675
0.25764718
0.17789099
0.11994925
0.07910536
0.051093955
0.032361315
0.020121828
0.012295435
0.0073904329
0.0043734806
0.0025501679
0.001466295
0.00083193224
0.00046606873
0.00025796975
0.00014115206
7.6388924e-05
4.0907909e-05
2.1687447e-05
1.1387216e-05
5.923329e-06
3.0543556e-06
1.5599542e-06
7.9303274e-07
3.9371556e-07
2.0648057e-07
8.1580297e-08
1
1
1
1
1
1
1
1
0.99999999
0.99999997
0.99999993
0.99999978
0.99999935
0.99999814
0.99999484
0.99998619
0.99996456
0.99991284
0.99979475
0.99953707
0.99899945
0.99792612
0.99587395
0.99211347
0.98550494
0.97436116
0.95632325
0.92829191
0.88647175
0.82659273
0.74436247
0.63616963
0.49999912
0.36510434
0.25958968
0.18002995
0.12197804
0.08085864
0.052511074
0.03344848
0.020920875
0.01286171
0.007779207
0.004632981
0.0027190479
0.0015736974
0.00089880838
0.00050690464
0.00028245571
0.00015558646
8.4762836e-05
4.5692603e-05
2.4382672e-05
1.2883661e-05
6.7453523e-06
3.4958332e-06
1.8030614e-06
9.0692041e-07
4.8261622e-07
1.9307567e-07
1
1
1
1
1
1
1
1
1
0.99999999
0.99999997
0.9999999
0.99999971
0.99999915
0.99999761
0.99999351
0.99998301
0.99995735
0.9998973
0.99976293
0.99947513
0.99888483
0.99772445
0.99553675
0.99157818
0.98469957
0.97321598
0.95479137
0.92637853
0.88426871
0.82431044
0.74234718
0.63489167
0.49999958
0.36633354
0.26146574
0.18210484
0.12395569
0.082576747
0.05390755
0.034526103
0.021717741
0.013429988
0.0081718646
0.0048967875
0.0028918655
0.0016843349
0.0009681565
0.0005495293
0.00030818019
0.0001708475
9.3670198e-05
5.0813207e-05
2.7280825e-05
1.45061e-05
7.6306485e-06
3.9941986e-06
2.0358792e-06
1.0996822e-06
4.4561354e-07
1
1
1
1
1
1
1
1
1
0.99999999
0.99999999
0.99999995
0.99999987
0.99999961
0.9999989
0.99999697
0.99999193
0.99997934
0.99994919
0.99988009
0.99972836
0.999409
0.99876437
0.9975155
0.99519181
0.99103683
0.9838933
0.97207971
0.95328318
0.9245073
0.88212632
0.82210124
0.74040354
0.63366242
0.50000003
0.36751767
0.26327959
0.18411933
0.1258847
0.084261025
0.055283846
0.035594105
0.022512086
0.013999859
0.0085680302
0.0051645999
0.003068401
0.0017980555
0.0010398762
0.00059387749
0.0003351023
0.00018690751
0.0001030966
5.6253337e-05
3.0385814e-05
1.6227057e-05
8.6223533e-06
4.4543773e-06
2.4429007e-06
1.002965e-06
1
1
1
1
1
1
1
1
1
1
0.99999999
0.99999998
0.99999994
0.99999983
0.9999995
0.99999859
0.9999962
0.99999008
0.99997512
0.99994005
0.99986117
0.99969101
0.99933873
0.99863824
0.99729965
0.99483975
0.99049022
0.98308692
0.97095282
0.95179839
0.9226767
0.88004163
0.81996097
0.73852707
0.63247866
0.5000005
0.36865968
0.26503503
0.18607671
0.12776734
0.0859127
0.056640384
0.036652399
0.023303569
0.014570898
0.0089672941
0.0054360695
0.0032483777
0.0019146506
0.0011138135
0.00063984065
0.00036314143
0.00020371863
0.0001129921
6.2014087e-05
3.362767e-05
1.8142436e-05
9.5006501e-06
5.2914702e-06
2.2016572e-06
1
1
1
1
1
1
1
1
1
1
1
0.99999999
0.99999997
0.99999992
0.99999977
0.99999935
0.99999822
0.99999528
0.99998794
0.99997034
0.99992987
0.99984049
0.9996509
0.99926439
0.99850667
0.99707728
0.99448114
0.98993905
0.98228113
0.96983567
0.95033663
0.92088528
0.87801188
0.8178858
0.73671369
0.63133747
0.50000097
0.36976222
0.26673546
0.18797997
0.12960573
0.087532944
0.057977581
0.037700896
0.024091812
0.015142611
0.0093691499
0.0057107343
0.0034314052
0.0020338028
0.0011897266
0.00068722702
0.00039217698
0.00022115455
0.00012335014
6.7928483e-05
3.7217484e-05
1.9758081e-05
1.1177786e-05
4.7142435e-06
1
1
1
1
1
1
1
1
1
1
1
1
0.99999999
0.99999996
0.9999999
0.9999997
0.99999917
0.99999777
0.9999942
0.99998547
0.99996496
0.99991863
0.99981804
0.99960802
0.99918606
0.99836983
0.99684875
0.99411652
0.98938397
0.98147651
0.96872853
0.94889749
0.91913159
0.87603445
0.81587217
0.73495966
0.63023615
0.50000136
0.37082768
0.26838413
0.18983203
0.13140198
0.089122945
0.059295837
0.038739426
0.024876296
0.015714308
0.0097728642
0.0059879043
0.0036168735
0.0021550183
0.0012672021
0.00073576834
0.00042191918
0.00023919394
0.0001337912
7.4454988e-05
4.0074049e-05
2.303203e-05
9.848019e-06
1
1
1
1
1
1
1
1
1
1
1
1
0.99999999
0.99999998
0.99999995
0.99999986
0.99999962
0.99999895
0.99999723
0.99999295
0.99998267
0.99995895
0.99990629
0.99979379
0.99956238
0.99910382
0.99822793
0.9966144
0.99374637
0.98882557
0.98067359
0.96763159
0.9474805
0.91741424
0.87410691
0.81391681
0.73326158
0.62917232
0.50000181
0.37185859
0.26998443
0.19163596
0.13315829
0.090683883
0.060595398
0.039767529
0.025656109
0.016284844
0.010177251
0.0062664541
0.0038038272
0.0022774582
0.0013456861
0.0007848397
0.00045232438
0.00025700712
0.00014529487
7.928921e-05
4.6302008e-05
2.0074473e-05
1
1
1
1
1
1
1
1
1
1
1
1
1
0.99999999
0.99999998
0.99999994
0.99999982
0.99999951
0.99999869
0.99999661
0.99999151
0.9999795
0.99995228
0.99989282
0.99976772
0.99951401
0.99901777
0.99808117
0.99637457
0.99337116
0.98826436
0.97987279
0.96654496
0.94608521
0.91573191
0.872227
0.81201678
0.73161653
0.62814417
0.50000326
0.37285813
0.27154034
0.19339513
0.13487689
0.092216657
0.061875942
0.04078398
0.026429455
0.016852202
0.010580276
0.0065445932
0.0039906278
0.0024000369
0.0014238896
0.00083437757
0.00048163867
0.00027664969
0.00015307384
9.0835107e-05
3.9938124e-05
1
1
1
1
1
1
1
1
1
1
1
1
1
1
0.99999999
0.99999997
0.99999992
0.99999977
0.99999938
0.99999838
0.99999588
0.99998986
0.99997595
0.99994492
0.99987819
0.99973982
0.99946293
0.99892799
0.99792973
0.99612955
0.99299129
0.98770081
0.9790745
0.96546873
0.94471112
0.91408336
0.87039271
0.81016959
0.7300223
0.62715097
0.50000841
0.37383086
0.27305668
0.19511311
0.13655954
0.093721128
0.063135714
0.041785889
0.027192893
0.01741276
0.010978672